ITEM: TIMESTEP
10121
ITEM: NUMBER OF ATOMS
5400
ITEM: BOX BOUNDS xy xz yz pp pp pp
-1.2274701360000000e-06 7.2434683890000002e+01 2.4144874590000001e+01
-1.7284199339999999e-06 4.1820163800000003e+01 -1.2274701360000000e-06
0.0000000000000000e+00 3.1469031000000001e+01 -1.7284199339999999e-06
ITEM: ATOMS id type x y z
76 1 1.42863 1.14546 2.69245
91 1 4.65572 1.14969 2.69132
94 1 3.03734 3.92927 2.66103
109 1 6.28727 3.92428 2.66894
112 1 4.74728 6.68899 2.54074
127 1 7.90521 6.73144 2.68147
166 2 3.04088 2.06786 2.02898
184 2 4.67245 4.81916 1.98468
16 1 3.03387 2.06506 5.32153
510 2 19.1436 13.2395 12.5346
77 1 1.42905 1.1373 7.9517
92 1 4.65508 1.14734 7.94876
95 1 3.02904 3.91124 7.98693
110 1 6.2686 3.9343 7.95959
113 1 4.71319 6.70823 8.03268
128 1 7.87797 6.74052 7.94653
167 2 3.03942 2.06648 7.29682
185 2 4.63804 4.86005 7.36463
277 2 7.90212 6.73953 4.65577
226 2 1.42565 1.13828 4.66346
241 2 4.65339 1.15104 4.66243
244 2 2.98664 3.90748 4.6323
259 2 6.31099 3.92057 4.63688
262 2 4.80655 6.64784 4.52175
17 1 3.04295 2.06367 10.586
35 1 4.66224 4.8438 10.6085
227 2 1.42928 1.14286 9.92274
242 2 4.65594 1.14751 9.91945
245 2 3.03792 3.9247 9.95769
260 2 6.27284 3.93217 9.9299
263 2 4.70134 6.70965 10.0001
278 2 7.88619 6.73415 9.9207
358 1 19.1439 13.2398 5.321
340 1 17.535 10.4519 5.32096
78 1 1.43116 1.14476 13.202
93 1 4.65733 1.14669 13.1994
96 1 3.04984 3.92616 13.223
111 1 6.27301 3.93657 13.2049
114 1 4.6636 6.72832 13.2142
129 1 7.88592 6.73036 13.2046
168 2 3.0439 2.07148 12.5543
279 2 7.88051 6.73141 15.1713
186 2 4.65775 4.86217 12.5714
228 2 1.4327 1.14947 15.1695
243 2 4.65615 1.15043 15.1672
246 2 3.04651 3.93663 15.1851
261 2 6.26905 3.94032 15.1716
264 2 4.6582 6.73105 15.1796
130 1 6.27798 9.53056 2.67048
145 1 9.4939 9.52546 2.69238
148 1 7.88116 12.3187 2.69258
202 2 6.32911 7.67904 1.98193
220 2 7.88883 10.4612 2.03235
388 1 11.099 12.3139 2.69644
463 2 9.49115 13.2459 2.04081
52 1 6.29481 7.67338 5.3038
70 1 7.88237 10.4587 5.31761
131 1 6.28763 9.53443 7.96711
146 1 9.49359 9.5257 7.94702
149 1 7.8875 12.3199 7.94883
298 2 7.88334 12.3184 4.66281
203 2 6.2696 7.67733 7.29059
221 2 7.88868 10.4604 7.29168
280 2 6.27459 9.5341 4.64603
295 2 9.49246 9.52812 4.66274
313 1 9.49199 13.2457 5.32057
389 1 11.1008 12.3134 7.94526
464 2 9.49443 13.2467 7.29035
538 2 11.0997 12.3142 4.66553
53 1 6.29651 7.67222 10.6074
71 1 7.8904 10.4602 10.5805
281 2 6.27907 9.53139 9.94337
296 2 9.49274 9.52424 9.91719
299 2 7.88301 12.3187 9.91984
314 1 9.49253 13.2461 10.5709
539 2 11.0994 12.313 9.91443
322 1 15.9264 7.66376 5.32103
359 1 19.1437 13.2396 10.5661
132 1 6.28333 9.52597 13.2215
147 1 9.4932 9.52338 13.1971
150 1 7.88233 12.3171 13.1998
204 2 6.27705 7.66604 12.5704
222 2 7.88559 10.4574 12.55
282 2 6.27239 9.52373 15.1839
297 2 9.48982 9.52276 15.1654
300 2 7.87912 12.3143 15.1677
341 1 17.5346 10.4516 10.5662
390 1 11.099 12.3127 13.1922
465 2 9.49052 13.2446 12.54
540 2 11.0976 12.3119 15.1607
106 1 7.88166 1.14795 2.69487
121 1 11.0977 1.15419 2.69728
124 1 9.49498 3.94139 2.69283
139 1 12.7093 3.94363 2.6971
142 1 11.1071 6.73267 2.69521
181 2 6.27253 2.06693 2.03007
196 2 9.48932 2.0819 2.04036
199 2 7.89145 4.87056 2.0262
214 2 11.1027 4.87383 2.03997
382 1 14.3193 6.73323 2.69764
31 1 6.26933 2.0742 5.31849
46 1 9.48649 2.08479 5.32003
49 1 7.89155 4.8789 5.31717
64 1 11.1012 4.87624 5.32062
107 1 7.87489 1.15374 7.94472
122 1 11.0934 1.15715 7.94352
125 1 9.48324 3.94723 7.94424
140 1 12.7043 3.94548 7.94377
143 1 11.0977 6.73469 7.94485
182 2 6.2635 2.08004 7.29062
197 2 9.48338 2.08699 7.28978
215 2 11.0949 4.87576 7.29
256 2 7.87949 1.14868 4.66484
271 2 11.0961 1.15535 4.66648
274 2 9.49561 3.94397 4.66354
292 2 11.1047 6.73494 4.66476
289 2 12.7083 3.94456 4.6662
200 2 7.87176 4.87766 7.29092
383 1 14.3159 6.73364 7.9439
532 2 14.3182 6.73368 4.66649
32 1 6.26759 2.07405 10.5763
47 1 9.48518 2.0847 10.568
50 1 7.87993 4.87323 10.5756
65 1 11.0963 4.87433 10.5679
257 2 7.87694 1.1518 9.91447
272 2 11.0944 1.15612 9.91254
275 2 9.48652 3.9442 9.91444
290 2 12.7049 3.94483 9.91267
293 2 11.0992 6.73339 9.91411
533 2 14.3159 6.7334 9.91263
492 2 17.5344 10.4515 12.5348
323 1 15.925 7.66324 10.5663
474 2 15.9249 7.66317 12.535
509 2 19.1438 13.2397 7.2896
108 1 7.87756 1.15177 13.1934
123 1 11.0952 1.15528 13.1895
126 1 9.48838 3.94255 13.1932
141 1 12.7056 3.94434 13.1895
144 1 11.0992 6.73289 13.1924
198 2 9.48527 2.08417 12.5372
201 2 7.87836 4.87257 12.5451
216 2 11.0963 4.87422 12.537
258 2 7.87668 1.15306 15.1618
273 2 11.0955 1.15507 15.1582
276 2 9.48776 3.9427 15.1618
294 2 11.0979 6.73276 15.161
291 2 12.7058 3.94412 15.1581
183 2 6.26622 2.07876 12.5451
384 1 14.316 6.73319 13.1893
534 2 14.3157 6.73305 15.1579
217 2 9.50623 7.66698 2.03312
385 1 12.7095 9.52343 2.69682
400 1 15.9264 9.52233 2.69802
403 1 14.3167 12.3117 2.69783
418 1 17.5347 12.3105 2.69831
457 2 12.7129 7.66478 2.04156
460 2 11.1022 10.4555 2.0408
475 2 14.3181 10.4531 2.04337
478 2 12.7082 13.2425 2.04317
493 2 15.9259 13.2408 2.04411
67 1 9.5008 7.67073 5.32045
218 2 9.49017 7.66721 7.2905
307 1 12.7109 7.66538 5.32098
310 1 11.1008 10.4559 5.32021
325 1 14.3175 10.4531 5.3208
328 1 12.7086 13.2426 5.32089
343 1 15.9259 13.2408 5.32097
386 1 12.7085 9.52306 7.94433
401 1 15.9256 9.52209 7.94372
404 1 14.3171 12.3113 7.94403
419 1 17.5347 12.3103 7.94364
458 2 12.7074 7.66425 7.29
461 2 11.1011 10.455 7.28977
476 2 14.3172 10.4527 7.28965
494 2 15.9259 13.2406 7.28966
535 2 12.7089 9.52395 4.66592
550 2 15.9261 9.52238 4.66674
553 2 14.3169 12.3117 4.66658
568 2 17.5347 12.3105 4.66693
479 2 12.709 13.2425 7.28984
68 1 9.49378 7.66499 10.5726
308 1 12.7078 7.6638 10.5676
311 1 11.1011 10.4543 10.5696
326 1 14.317 10.4524 10.567
329 1 12.7083 13.2421 10.5676
344 1 15.9257 13.2404 10.5665
536 2 12.7082 9.52267 9.91334
551 2 15.9254 9.52197 9.9124
554 2 14.3166 12.3111 9.91279
569 2 17.5345 12.3102 9.91226
3015 1 9.49001 13.2445 0.071804
219 2 9.49064 7.6642 12.5423
491 2 17.5347 10.4517 7.2896
473 2 15.9251 7.66339 7.28972
508 2 19.1439 13.2398 2.04446
490 2 17.5352 10.452 2.04421
472 2 15.9273 7.66371 2.0437
387 1 12.7082 9.52239 13.1908
402 1 15.9254 9.52184 13.189
405 1 14.3164 12.311 13.1896
420 1 17.5344 12.3101 13.1887
459 2 12.7072 7.66363 12.5365
462 2 11.1 10.4538 12.5386
477 2 14.3167 10.4523 12.5356
480 2 12.7077 13.2417 12.5364
495 2 15.9254 13.2403 12.5351
537 2 12.7073 9.52208 15.1594
552 2 15.9251 9.52173 15.1575
555 2 14.3159 12.3107 15.1581
570 2 17.5342 12.3101 15.1572
211 2 12.7066 2.08491 2.04321
454 2 14.3177 4.87452 2.04326
61 1 12.705 2.08595 5.3208
212 2 12.7035 2.08657 7.28967
304 1 14.3165 4.87501 5.32096
455 2 14.3144 4.87486 7.28979
62 1 12.7039 2.08598 10.5663
305 1 14.3145 4.87458 10.5664
456 2 14.3146 4.87452 12.5351
213 2 12.7042 2.08573 12.5351
3024 1 15.9267 7.66349 0.0750418
3030 1 12.7078 13.242 0.0744347
2763 1 12.7063 2.08493 0.0743893
3027 1 14.3177 10.4528 0.0746399
3006 1 14.3171 4.87443 0.0744972
3012 1 11.101 10.4544 0.0717479
2748 1 9.48808 2.0824 0.0711507
3009 1 12.7106 7.66411 0.0727444
2766 1 11.1003 4.87378 0.0709093
2718 1 3.04352 2.07327 0.0602244
2754 1 6.28663 7.66778 0.026027
2751 1 7.88392 4.87107 0.0578836
2736 1 4.66132 4.85566 0.0279912
2769 1 9.49654 7.66465 0.0640201
2772 1 7.88553 10.458 0.0625702
3045 1 15.9257 13.2406 0.0754856
2733 1 6.26912 2.07572 0.0619902
3060 1 19.1438 13.2397 0.0758773
3042 1 17.5351 10.4518 0.0755911
2776 1 1.43356 1.15086 18.4397
2791 1 4.6561 1.15167 18.4384
2794 1 3.04515 3.94072 18.4413
2809 1 6.26761 3.94151 18.4393
2812 1 4.65674 6.73187 18.4422
2827 1 7.87872 6.73201 18.4391
2866 2 3.04457 2.08032 17.7906
2884 2 4.65648 4.87152 17.7925
2716 1 3.04474 2.08208 21.0574
2734 1 4.65585 4.87202 21.0576
2777 1 1.43386 1.15274 23.6756
2792 1 4.65548 1.15296 23.6753
2795 1 3.04482 3.94214 23.6747
2810 1 6.26657 3.94243 23.6744
2813 1 4.65594 6.73239 23.6741
2828 1 7.8775 6.73255 23.6742
2867 2 3.04463 2.08229 23.0245
2885 2 4.65566 4.87221 23.0243
2977 2 7.87739 6.73244 20.406
2926 2 1.43384 1.15256 20.4066
2941 2 4.6555 1.15295 20.4056
2944 2 3.04483 3.942 20.4079
2959 2 6.26655 3.94242 20.4062
2962 2 4.65597 6.73229 20.4085
2717 1 3.04456 2.08089 26.2917
2735 1 4.65634 4.87183 26.2899
2927 2 1.43346 1.15162 25.6427
2942 2 4.6557 1.15184 25.6424
2945 2 3.0448 3.94137 25.6414
2960 2 6.26729 3.94162 25.6412
2963 2 4.65623 6.73232 25.6406
2978 2 7.87872 6.73249 25.641
3210 2 19.1436 13.2396 28.2686
3192 2 17.5348 10.4516 28.2682
2778 1 1.43269 1.1505 28.9138
2793 1 4.65599 1.15079 28.9134
2796 1 3.04496 3.93753 28.8991
2811 1 6.27074 3.93942 28.9041
2814 1 4.65791 6.73173 28.9039
2829 1 7.88304 6.73125 28.9032
2868 2 3.04433 2.07679 28.258
2979 2 7.89397 6.72913 30.8676
2886 2 4.65797 4.8701 28.2559
2928 2 1.43078 1.14689 30.8817
2943 2 4.65668 1.14735 30.8812
2946 2 3.04475 3.92813 30.8618
2961 2 6.27845 3.93279 30.8688
2964 2 4.66392 6.72917 30.8698
2830 1 6.26817 9.52299 18.4409
2845 1 9.48894 9.52239 18.4378
2848 1 7.87836 12.3133 18.4389
2902 2 6.26771 7.66217 17.7922
2920 2 7.87899 10.4535 17.7896
3088 1 11.0974 12.3116 18.4354
3163 2 9.48789 13.2422 17.7839
2752 1 6.26699 7.66254 21.0575
2770 1 7.87759 10.4526 21.057
2831 1 6.26686 9.52271 23.6744
2846 1 9.48771 9.52244 23.6749
2849 1 7.87703 12.3124 23.6753
2998 2 7.87708 12.3124 20.406
2903 2 6.26678 7.66264 23.0242
2921 2 7.87742 10.4527 23.0241
2980 2 6.26689 9.52264 20.4075
2995 2 9.4876 9.5223 20.4051
3013 1 9.48739 13.2418 21.0565
3089 1 11.0968 12.3115 23.6767
3164 2 9.48727 13.2418 23.0242
3238 2 11.0968 12.3114 20.4034
2753 1 6.26761 7.66248 26.2896
2771 1 7.87886 10.4536 26.2915
2981 2 6.26765 9.52327 25.6411
2996 2 9.48897 9.52296 25.6421
2999 2 7.8779 12.3134 25.6424
3014 1 9.4877 13.2422 26.2969
3239 2 11.0973 12.3119 25.6447
309 1 12.7072 7.66311 15.8128
306 1 14.3151 4.8742 15.8113
2832 1 6.2715 9.52549 28.8988
2847 1 9.49028 9.52339 28.9138
2850 1 7.87879 12.3144 28.9142
2904 2 6.27023 7.66229 28.2556
2922 2 7.88267 10.456 28.2579
2982 2 6.28038 9.53096 30.8614
2997 2 9.49389 9.52467 30.882
3000 2 7.88123 12.3174 30.8823
345 1 15.9252 13.2401 15.8113
3090 1 11.0977 12.3123 28.9193
3165 2 9.48902 13.2434 28.2649
3240 2 11.0989 12.3133 30.8879
2806 1 7.87667 1.15339 18.4357
2821 1 11.0958 1.15488 18.4338
2824 1 9.48769 3.94274 18.436
2839 1 12.7061 3.94391 18.4337
2842 1 11.0978 6.73255 18.4354
2881 2 6.26593 2.08222 17.7862
2896 2 9.48591 2.08399 17.782
2899 2 7.87741 4.8724 17.787
2914 2 11.0965 4.87362 17.7818
3082 1 14.3158 6.73294 18.4336
2731 1 6.26606 2.08275 21.0565
2746 1 9.48617 2.0839 21.0555
2749 1 7.87707 4.87264 21.0565
2764 1 11.0967 4.87345 21.0554
2807 1 7.87642 1.15379 23.6758
2822 1 11.0961 1.15481 23.6765
2825 1 9.48733 3.94302 23.675
2840 1 12.7064 3.94382 23.6764
2843 1 11.0975 6.73266 23.6755
2882 2 6.26596 2.08277 23.0238
2897 2 9.48629 2.08378 23.0233
2915 2 11.097 4.87345 23.0232
2956 2 7.87622 1.15388 20.4035
2971 2 11.0958 1.15493 20.4021
2974 2 9.48698 3.94313 20.4037
2992 2 11.0972 6.73267 20.4032
2989 2 12.706 3.9439 20.4019
2900 2 7.87702 4.8727 23.0236
3083 1 14.316 6.73291 23.6768
3232 2 14.3158 6.73293 20.4019
2732 1 6.26624 2.08182 26.2931
2747 1 9.48672 2.08352 26.2962
2750 1 7.87825 4.87215 26.2909
2765 1 11.0976 4.87346 26.2961
2957 2 7.87705 1.15304 25.6434
2972 2 11.0966 1.15444 25.6447
2975 2 9.4886 3.94241 25.6424
2990 2 12.707 3.94365 25.6446
2993 2 11.0986 6.73261 25.6431
3233 2 14.3166 6.73295 25.645
3174 2 15.9261 7.6632 28.2676
324 1 15.9249 7.66297 15.8112
327 1 14.3164 10.452 15.812
3022 1 15.925 7.66288 21.0552
2808 1 7.87801 1.15216 28.9161
2823 1 11.0971 1.15424 28.92
2826 1 9.49024 3.94179 28.9147
2841 1 12.7077 3.9436 28.9199
2844 1 11.1001 6.73266 28.9162
2898 2 9.48794 2.08249 28.2641
2901 2 7.88148 4.87053 28.2571
2916 2 11.0993 4.87326 28.264
2958 2 7.88042 1.14945 30.8841
2973 2 11.0978 1.15378 30.8886
2976 2 9.49352 3.94049 30.8828
2994 2 11.104 6.73251 30.8843
2991 2 12.7089 3.94343 30.8884
2883 2 6.26736 2.07894 28.26
3084 1 14.3173 6.73298 28.9206
3234 2 14.3185 6.73309 30.8891
2917 2 9.48803 7.66302 17.7856
3085 1 12.7071 9.52196 18.4346
3100 1 15.9251 9.52167 18.4334
3103 1 14.3158 12.3106 18.4339
3118 1 17.5341 12.31 18.4333
3157 2 12.7066 7.66304 17.7811
3160 2 11.0978 10.4525 17.783
3175 2 14.316 10.4518 17.7804
3178 2 12.7066 13.2409 17.781
3193 2 15.925 13.24 17.7798
2767 1 9.48768 7.66269 21.0563
2918 2 9.4877 7.66282 23.0235
3007 1 12.7067 7.6629 21.0554
3010 1 11.0975 10.4523 21.056
3025 1 14.316 10.4517 21.0555
3028 1 12.7064 13.2408 21.0559
3043 1 15.9249 13.24 21.0556
3086 1 12.7068 9.522 23.6766
3101 1 15.9252 9.52169 23.6773
3104 1 14.3156 12.3106 23.6774
3119 1 17.5341 12.31 23.6776
3158 2 12.7069 7.663 23.0234
3161 2 11.0975 10.4524 23.0237
3176 2 14.3161 10.4518 23.0238
3194 2 15.925 13.24 23.024
3235 2 12.7066 9.52195 20.4026
3250 2 15.925 9.52167 20.4018
3253 2 14.3155 12.3106 20.4022
3268 2 17.5341 12.31 20.4018
3179 2 12.7064 13.2408 23.024
2768 1 9.48896 7.66332 26.2927
3008 1 12.7075 7.66317 26.2974
3011 1 11.0981 10.4527 26.2966
3026 1 14.3164 10.452 26.2989
3029 1 12.7067 13.241 26.2989
3044 1 15.9251 13.2401 26.2997
3236 2 12.7074 9.52224 25.6446
3251 2 15.9255 9.52182 25.6457
3254 2 14.3159 12.3108 25.6457
3269 2 17.5343 12.3101 25.6461
3059 1 19.1435 13.2395 26.3
2919 2 9.4925 7.66419 28.2596
3041 1 17.5345 10.4515 26.2997
3023 1 15.9255 7.66304 26.2992
3209 2 19.1434 13.2395 23.024
3191 2 17.5344 10.4514 23.0238
3173 2 15.9252 7.66294 23.0236
3087 1 12.708 9.5224 28.9196
3102 1 15.9258 9.52192 28.9216
3105 1 14.3161 12.311 28.9214
3120 1 17.5344 12.3102 28.9222
3159 2 12.709 7.66352 28.2655
3162 2 11.0998 10.4536 28.2647
3177 2 14.3171 10.4523 28.2673
3180 2 12.7072 13.2415 28.2673
3195 2 15.9254 13.2403 28.2682
3237 2 12.7094 9.523 30.8881
3252 2 15.9263 9.52217 30.8902
3255 2 14.3166 12.3114 30.89
3270 2 17.5346 12.3104 30.8908
2911 2 12.7049 2.08521 17.7798
3154 2 14.3151 4.87419 17.7798
2761 1 12.7053 2.08505 21.0551
2912 2 12.7055 2.08496 23.0234
3004 1 14.3153 4.87406 21.0551
3155 2 14.3156 4.87406 23.0234
2762 1 12.7057 2.08492 26.2985
3005 1 14.3159 4.87413 26.2987
3058 1 19.1434 13.2394 21.0555
2913 2 12.7063 2.08469 28.2669
3040 1 17.5343 10.4513 21.0554
3156 2 14.3167 4.87411 28.267
3172 2 15.9248 7.66295 17.7796
3190 2 17.5342 10.4514 17.7795
3208 2 19.1434 13.2394 17.7794
315 1 9.48943 13.2434 15.8159
342 1 17.5343 10.4514 15.811
33 1 6.26686 2.08028 15.8188
54 1 6.27042 7.66125 15.8263
51 1 7.87942 4.87133 15.8199
72 1 7.88311 10.4555 15.8233
69 1 9.49018 7.66331 15.8181
312 1 11.0993 10.453 15.8149
330 1 12.7072 13.2413 15.8126
48 1 9.48641 2.08358 15.8138
63 1 12.7049 2.08526 15.8114
18 1 3.04479 2.07568 15.8244
360 1 19.1435 13.2394 15.8109
36 1 4.6587 4.86976 15.8267
66 1 11.0971 4.87353 15.8135
976 1 9.48844 15.1039 2.69671
991 1 12.7068 15.1009 2.69783
994 1 11.0964 17.8899 2.69791
1009 1 14.3151 17.8879 2.69832
1012 1 12.7048 20.6763 2.69835
1027 1 15.9238 20.6749 2.69851
1066 2 11.0981 16.0317 2.04329
1084 2 12.706 18.818 2.04415
916 1 11.0988 16.032 5.32096
934 1 12.7064 18.8183 5.32106
977 1 9.49058 15.1052 7.94531
992 1 12.7076 15.1009 7.94429
995 1 11.0972 17.8906 7.94426
1010 1 14.3155 17.888 7.94388
1013 1 12.7051 20.6766 7.94387
1028 1 15.9239 20.675 7.94371
1067 2 11.0995 16.0324 7.28991
1085 2 12.7066 18.8184 7.28975
1177 2 15.9239 20.675 4.66709
1126 2 9.48958 15.1042 4.6658
1141 2 12.7073 15.1011 4.6666
1144 2 11.0969 17.8903 4.66664
1159 2 14.3154 17.888 4.66695
1162 2 12.705 20.6765 4.66696
917 1 11.0987 16.0319 10.5678
935 1 12.7063 18.8181 10.5668
1127 2 9.48923 15.1043 9.91455
1142 2 12.707 15.1006 9.91307
1145 2 11.0967 17.8901 9.91303
1160 2 14.3152 17.8878 9.91252
1163 2 12.7049 20.6764 9.91249
1178 2 15.9238 20.6749 9.91229
1410 2 27.1899 27.1773 12.5346
1392 2 25.5805 24.3899 12.5345
978 1 9.48858 15.1033 13.1924
993 1 12.7067 15.1004 13.19
996 1 11.0963 17.8895 13.19
1011 1 14.315 17.8876 13.1891
1014 1 12.7047 20.6761 13.1891
1029 1 15.9237 20.6748 13.1887
1068 2 11.0978 16.0311 12.5366
1179 2 15.9235 20.6746 15.1573
1086 2 12.7058 18.8177 12.5354
1128 2 9.48715 15.1019 15.1609
1143 2 12.706 15.0999 15.1585
1146 2 11.0956 17.8888 15.1585
1161 2 14.3147 17.8874 15.1576
1164 2 12.7044 20.6757 15.1576
1030 1 14.3135 23.4629 2.69853
1045 1 17.5326 23.462 2.69859
1048 1 15.9223 26.2497 2.6986
1102 2 14.3144 21.6046 2.04449
1120 2 15.9231 24.3914 2.04463
1288 1 19.1416 26.249 2.69863
1363 2 17.532 27.1782 2.04469
952 1 14.3146 21.6048 5.3211
970 1 15.9232 24.3914 5.32112
1031 1 14.3136 23.4631 7.94372
1046 1 17.5327 23.462 7.94365
1049 1 15.9223 26.2497 7.94369
1198 2 15.9223 26.2497 4.66716
1103 2 14.3147 21.6048 7.2897
1121 2 15.9233 24.3914 7.28969
1180 2 14.3136 23.463 4.6671
1195 2 17.5327 23.462 4.66715
1213 1 17.532 27.1781 5.32115
1289 1 19.1417 26.2489 7.94366
1364 2 17.532 27.1781 7.28971
1438 2 19.1416 26.249 4.66719
953 1 14.3146 21.6047 10.5664
971 1 15.9232 24.3914 10.5662
1181 2 14.3135 23.463 9.9123
1196 2 17.5326 23.4619 9.91222
1199 2 15.9223 26.2497 9.91225
1214 1 17.532 27.1781 10.5662
1439 2 19.1416 26.2489 9.91222
1259 1 27.1899 27.1773 10.566
1241 1 25.5805 24.3899 10.566
1032 1 14.3134 23.4628 13.1888
1047 1 17.5326 23.4619 13.1886
1050 1 15.9223 26.2496 13.1887
1104 2 14.3143 21.6045 12.5349
1122 2 15.9231 24.3913 12.5348
1182 2 14.3133 23.4626 15.1573
1197 2 17.5325 23.4618 15.1571
1200 2 15.9222 26.2496 15.1572
1223 1 23.9712 21.6024 10.566
1290 1 19.1416 26.2489 13.1886
1365 2 17.532 27.1782 12.5347
1440 2 19.1416 26.249 15.1571
1006 1 15.9251 15.0993 2.69829
1021 1 19.1435 15.0983 2.69847
1024 1 17.5338 17.8867 2.69849
1039 1 20.7525 17.886 2.69855
1042 1 19.1427 20.674 2.69857
1081 2 14.3162 16.0295 2.0441
1096 2 17.5344 16.0282 2.04445
1099 2 15.9246 18.8166 2.04447
1114 2 19.1432 18.8156 2.04461
1282 1 22.3616 20.6735 2.69859
931 1 14.3165 16.0296 5.32105
946 1 17.5345 16.0282 5.32104
949 1 15.9248 18.8166 5.32108
964 1 19.1433 18.8156 5.32107
1007 1 15.9253 15.0991 7.94379
1022 1 19.1436 15.0982 7.94358
1025 1 17.5339 17.8867 7.94366
1040 1 20.7526 17.8859 7.94355
1043 1 19.1428 20.674 7.94361
1082 2 14.3166 16.0296 7.28976
1097 2 17.5345 16.0282 7.28966
1115 2 19.1433 18.8156 7.28965
1156 2 15.9253 15.0993 4.66693
1171 2 19.1436 15.0983 4.66706
1174 2 17.5339 17.8867 4.66707
1192 2 19.1428 20.674 4.66714
1189 2 20.7526 17.8859 4.66712
1100 2 15.9249 18.8166 7.2897
1283 1 22.3617 20.6734 7.94354
1432 2 22.3617 20.6735 4.66715
932 1 14.3163 16.0294 10.5667
947 1 17.5344 16.0281 10.5662
950 1 15.9247 18.8165 10.5663
965 1 19.1433 18.8155 10.5661
1157 2 15.9251 15.099 9.91243
1172 2 19.1435 15.0981 9.91217
1175 2 17.5338 17.8866 9.91225
1190 2 20.7525 17.8859 9.91211
1193 2 19.1427 20.674 9.91217
1433 2 22.3617 20.6734 9.9121
1374 2 23.9711 21.6024 12.5345
1409 2 27.1899 27.1773 7.28966
1391 2 25.5805 24.3899 7.28964
1373 2 23.9712 21.6025 7.28962
1008 1 15.9249 15.0989 13.189
1023 1 19.1434 15.0981 13.1885
1026 1 17.5337 17.8865 13.1887
1041 1 20.7524 17.8858 13.1884
1044 1 19.1426 20.6739 13.1885
1098 2 17.5342 16.028 12.5348
1101 2 15.9245 18.8163 12.5349
1116 2 19.1431 18.8155 12.5347
1158 2 15.9246 15.0987 15.1575
1173 2 19.1432 15.098 15.1571
1176 2 17.5335 17.8864 15.1572
1194 2 19.1425 20.6739 15.1571
1191 2 20.7523 17.8858 15.157
1083 2 14.3159 16.0291 12.5353
1284 1 22.3616 20.6734 13.1884
1434 2 22.3615 20.6734 15.157
1117 2 17.5333 21.6036 2.04462
1285 1 20.7518 23.4613 2.69862
1300 1 23.9709 23.461 2.69862
1303 1 22.3609 26.2486 2.69864
1318 1 25.5802 26.2484 2.69863
1357 2 20.7522 21.6029 2.04468
1360 2 19.1422 24.3907 2.04469
1375 2 22.3613 24.3902 2.04472
1378 2 20.7513 27.1777 2.04472
1393 2 23.9706 27.1774 2.04474
967 1 17.5334 21.6036 5.3211
1118 2 17.5335 21.6036 7.28968
1207 1 20.7523 21.6029 5.32108
1210 1 19.1423 24.3906 5.32112
1225 1 22.3614 24.3901 5.3211
1228 1 20.7513 27.1776 5.32114
1243 1 23.9706 27.1773 5.32112
1286 1 20.7518 23.4613 7.94359
1301 1 23.9709 23.4609 7.94354
1304 1 22.361 26.2485 7.94362
1319 1 25.5803 26.2483 7.94357
1358 2 20.7523 21.6029 7.28965
1361 2 19.1423 24.3906 7.28969
1376 2 22.3614 24.3901 7.28967
1394 2 23.9706 27.1773 7.28969
1435 2 20.7518 23.4613 4.66718
1450 2 23.9709 23.4609 4.66718
1453 2 22.361 26.2485 4.6672
1468 2 25.5803 26.2484 4.66719
1379 2 20.7513 27.1775 7.28971
968 1 17.5334 21.6036 10.5662
1208 1 20.7523 21.6028 10.566
1211 1 19.1423 24.3906 10.5661
1226 1 22.3614 24.3901 10.566
1229 1 20.7513 27.1775 10.5661
1244 1 23.9706 27.1773 10.5661
1436 2 20.7518 23.4613 9.91215
1451 2 23.9709 23.4609 9.9121
1454 2 22.361 26.2485 9.91218
1469 2 25.5803 26.2483 9.91213
1258 1 27.1899 27.1774 5.32109
1119 2 17.5332 21.6035 12.5347
1240 1 25.5805 24.39 5.32108
1222 1 23.9712 21.6025 5.32106
1408 2 27.1898 27.1775 2.04474
1390 2 25.5804 24.39 2.04473
1372 2 23.9711 21.6026 2.0447
1287 1 20.7517 23.4612 13.1885
1302 1 23.9709 23.4609 13.1884
1305 1 22.3609 26.2485 13.1885
1320 1 25.5803 26.2483 13.1884
1359 2 20.7522 21.6028 12.5346
1362 2 19.1422 24.3906 12.5347
1377 2 22.3613 24.3901 12.5346
1380 2 20.7513 27.1776 12.5347
1395 2 23.9706 27.1773 12.5346
1437 2 20.7517 23.4612 15.157
1452 2 23.9708 23.4609 15.157
1455 2 22.3609 26.2485 15.1571
1470 2 25.5802 26.2484 15.157
1111 2 20.7528 16.0275 2.04459
1354 2 22.3619 18.8151 2.04466
961 1 20.7529 16.0275 5.32103
1112 2 20.7529 16.0274 7.28961
1204 1 22.362 18.815 5.32105
1355 2 22.362 18.815 7.28961
962 1 20.7528 16.0273 10.566
1205 1 22.362 18.8149 10.566
1356 2 22.3619 18.8149 12.5345
1113 2 20.7527 16.0273 12.5346
3663 1 20.7527 16.0275 0.0760258
3906 1 22.3618 18.8151 0.076102
3666 1 19.1431 18.8156 0.0760452
3654 1 14.3142 21.6045 0.0759312
3618 1 11.0974 16.031 0.0745967
3945 1 23.9705 27.1775 0.076183
3930 1 20.7513 27.1777 0.0761703
3927 1 22.3613 24.3902 0.0761669
3924 1 23.9711 21.6026 0.076144
3942 1 25.5804 24.39 0.0761686
3960 1 27.1898 27.1775 0.0761774
3672 1 15.923 24.3913 0.0760821
3915 1 17.532 27.1783 0.0761398
3909 1 20.7521 21.6029 0.076126
3912 1 19.1422 24.3907 0.0761414
3636 1 12.7056 18.8176 0.0755622
3648 1 17.5343 16.0281 0.0758729
3651 1 15.9244 18.8164 0.0758967
3633 1 14.3158 16.0292 0.0754865
3669 1 17.5332 21.6035 0.0760662
3676 1 9.4868 15.1012 18.4356
3691 1 12.7058 15.0997 18.4342
3694 1 11.0954 17.8884 18.4342
3709 1 14.3145 17.8872 18.4336
3712 1 12.7042 20.6755 18.4336
3727 1 15.9234 20.6745 18.4334
3766 2 11.0964 16.0298 17.7812
3784 2 12.7051 18.817 17.7801
3616 1 11.0962 16.0295 21.0561
3634 1 12.7049 18.8169 21.0558
3677 1 9.48622 15.1007 23.6771
3692 1 12.7056 15.0995 23.6775
3695 1 11.0951 17.8881 23.6777
3710 1 14.3144 17.8871 23.6778
3713 1 12.7041 20.6753 23.6779
3728 1 15.9233 20.6745 23.6779
3767 2 11.0961 16.0295 23.0242
3785 2 12.7049 18.8168 23.0242
3877 2 15.9233 20.6745 20.4019
3826 2 9.48623 15.1007 20.4036
3841 2 12.7055 15.0995 20.4025
3844 2 11.0951 17.8881 20.4025
3859 2 14.3144 17.8871 20.4021
3862 2 12.7041 20.6753 20.4021
3617 1 11.0963 16.0297 26.2991
3635 1 12.705 18.817 26.2999
3827 2 9.48657 15.1012 25.6451
3842 2 12.7058 15.0998 25.6458
3845 2 11.0953 17.8884 25.646
3860 2 14.3145 17.8873 25.6463
3863 2 12.7042 20.6755 25.6463
3878 2 15.9234 20.6746 25.6464
1206 1 22.3618 18.8149 15.8108
1245 1 23.9706 27.1774 15.8109
3678 1 9.48689 15.1018 28.9198
3693 1 12.7059 15.1001 28.9215
3696 1 11.0955 17.8888 28.9217
3711 1 14.3146 17.8874 28.9223
3714 1 12.7043 20.6757 28.9223
3729 1 15.9235 20.6747 28.9226
3768 2 11.0968 16.0303 28.2674
3879 2 15.9236 20.6748 30.8911
3786 2 12.7052 18.8173 28.2684
3828 2 9.48797 15.1031 30.8882
3843 2 12.7065 15.1006 30.89
3846 2 11.096 17.8894 30.8902
3861 2 14.3149 17.8877 30.8908
3864 2 12.7045 20.676 30.8909
3730 1 14.3132 23.4625 18.4334
3745 1 17.5324 23.4618 18.4334
3748 1 15.9222 26.2496 18.4334
3802 2 14.3139 21.6041 17.7797
3820 2 15.9229 24.3912 17.7796
3988 1 19.1415 26.249 18.4334
4063 2 17.5319 27.1783 17.7796
3652 1 14.3138 21.604 21.0557
3670 1 15.9228 24.3912 21.0557
3731 1 14.3131 23.4625 23.678
3746 1 17.5324 23.4618 23.678
3749 1 15.9222 26.2496 23.678
3898 2 15.9222 26.2496 20.4019
3803 2 14.3138 21.604 23.0242
3821 2 15.9228 24.3912 23.0242
3880 2 14.3131 23.4625 20.4019
3895 2 17.5324 23.4618 20.4019
3913 1 17.5319 27.1783 21.0557
3989 1 19.1415 26.249 23.678
4064 2 17.5319 27.1783 23.0242
4138 2 19.1415 26.249 20.4019
3653 1 14.3139 21.6041 26.3002
3671 1 15.9228 24.3912 26.3003
3881 2 14.3131 23.4625 25.6465
3896 2 17.5324 23.4618 25.6465
3899 2 15.9222 26.2496 25.6465
3914 1 17.5319 27.1783 26.3004
4139 2 19.1415 26.2491 25.6465
1230 1 20.7513 27.1777 15.811
951 1 15.9242 18.8162 15.8112
3732 1 14.3132 23.4626 28.9226
3747 1 17.5325 23.4619 28.9227
3750 1 15.9222 26.2497 28.9227
3804 2 14.314 21.6043 28.2687
3822 2 15.9229 24.3913 28.2688
3882 2 14.3133 23.4628 30.8911
3897 2 17.5325 23.4619 30.8912
3900 2 15.9223 26.2497 30.8912
963 1 20.7526 16.0273 15.8108
3990 1 19.1416 26.2491 28.9228
4065 2 17.5319 27.1783 28.2689
4140 2 19.1416 26.249 30.8913
3706 1 15.9245 15.0987 18.4335
3721 1 19.1432 15.098 18.4332
3724 1 17.5334 17.8863 18.4333
3739 1 20.7523 17.8858 18.4332
3742 1 19.1425 20.6738 18.4333
3781 2 14.3152 16.0286 17.7801
3796 2 17.5339 16.0278 17.7796
3799 2 15.9241 18.8161 17.7797
3814 2 19.1429 18.8154 17.7794
3982 1 22.3615 20.6734 18.4332
3631 1 14.3151 16.0285 21.0557
3646 1 17.5338 16.0278 21.0556
3649 1 15.924 18.816 21.0557
3664 1 19.1428 18.8154 21.0556
3707 1 15.9244 15.0986 23.6777
3722 1 19.1431 15.098 23.6778
3725 1 17.5333 17.8863 23.6779
3740 1 20.7522 17.8858 23.6779
3743 1 19.1424 20.6739 23.6779
3782 2 14.3151 16.0286 23.0241
3797 2 17.5338 16.0278 23.0241
3815 2 19.1428 18.8154 23.0241
3856 2 15.9244 15.0986 20.402
3871 2 19.1431 15.098 20.4017
3874 2 17.5333 17.8863 20.4018
3892 2 19.1424 20.6738 20.4018
3889 2 20.7522 17.8858 20.4017
3800 2 15.9239 18.816 23.0241
3983 1 22.3614 20.6734 23.6779
4132 2 22.3614 20.6734 20.4017
3632 1 14.3152 16.0287 26.2998
3647 1 17.5339 16.0279 26.3001
3650 1 15.924 18.8161 26.3001
3665 1 19.1429 18.8154 26.3002
3857 2 15.9245 15.0988 25.6462
3872 2 19.1432 15.0981 25.6463
3875 2 17.5334 17.8864 25.6464
3890 2 20.7522 17.8859 25.6464
3893 2 19.1424 20.6739 25.6465
4133 2 22.3614 20.6735 25.6465
972 1 15.923 24.3912 15.8111
4110 2 27.1898 27.1775 28.2689
4092 2 25.5803 24.3901 28.2689
4074 2 23.971 21.6026 28.2689
3708 1 15.9246 15.0989 28.9222
3723 1 19.1433 15.0982 28.9225
3726 1 17.5335 17.8865 28.9225
3741 1 20.7523 17.8859 28.9227
3744 1 19.1425 20.674 28.9227
3798 2 17.5341 16.028 28.2686
3801 2 15.9242 18.8162 28.2687
3816 2 19.143 18.8155 28.2688
3858 2 15.9249 15.0991 30.8907
3873 2 19.1434 15.0983 30.8911
3876 2 17.5336 17.8866 30.8911
3894 2 19.1426 20.674 30.8912
3891 2 20.7524 17.886 30.8912
3783 2 14.3155 16.0289 28.2683
3984 1 22.3615 20.6735 28.9227
4134 2 22.3615 20.6735 30.8913
3817 2 17.533 21.6034 17.7795
3985 1 20.7516 23.4613 18.4333
4000 1 23.9708 23.4609 18.4332
4003 1 22.3609 26.2486 18.4333
4018 1 25.5802 26.2484 18.4332
4057 2 20.752 21.6028 17.7794
4060 2 19.1421 24.3906 17.7795
4075 2 22.3612 24.3902 17.7794
4078 2 20.7512 27.1778 17.7795
4093 2 23.9705 27.1775 17.7795
3667 1 17.5329 21.6033 21.0557
3818 2 17.5329 21.6034 23.0242
3907 1 20.752 21.6028 21.0556
3910 1 19.142 24.3906 21.0557
3925 1 22.3612 24.3902 21.0556
3928 1 20.7512 27.1778 21.0557
3943 1 23.9705 27.1775 21.0557
3986 1 20.7516 23.4613 23.678
4001 1 23.9707 23.461 23.678
4004 1 22.3608 26.2487 23.678
4019 1 25.5801 26.2485 23.678
4058 2 20.752 21.6028 23.0241
4061 2 19.142 24.3906 23.0242
4076 2 22.3612 24.3902 23.0242
4094 2 23.9705 27.1776 23.0242
4135 2 20.7516 23.4613 20.4018
4150 2 23.9707 23.461 20.4017
4153 2 22.3608 26.2486 20.4018
4168 2 25.5802 26.2485 20.4018
4079 2 20.7512 27.1778 23.0242
3668 1 17.533 21.6034 26.3003
3908 1 20.752 21.6029 26.3003
3911 1 19.142 24.3906 26.3004
3926 1 22.3612 24.3903 26.3004
3929 1 20.7512 27.1778 26.3004
3944 1 23.9705 27.1776 26.3004
4136 2 20.7516 23.4613 25.6465
4151 2 23.9707 23.461 25.6465
4154 2 22.3608 26.2487 25.6466
4169 2 25.5801 26.2485 25.6465
3959 1 27.1898 27.1775 26.3004
3819 2 17.5331 21.6035 28.2688
933 1 14.3155 16.0288 15.8116
948 1 17.534 16.0279 15.8111
3941 1 25.5803 24.3901 26.3004
3923 1 23.971 21.6026 26.3003
4109 2 27.1898 27.1775 23.0241
3987 1 20.7516 23.4613 28.9227
4002 1 23.9708 23.461 28.9228
4005 1 22.3609 26.2487 28.9228
4020 1 25.5802 26.2485 28.9228
4059 2 20.752 21.6029 28.2689
4062 2 19.1421 24.3907 28.2689
4077 2 22.3612 24.3903 28.2689
4080 2 20.7512 27.1778 28.2689
4095 2 23.9705 27.1776 28.2689
4137 2 20.7517 23.4613 30.8913
4152 2 23.9708 23.461 30.8913
4155 2 22.3609 26.2486 30.8913
4170 2 25.5802 26.2485 30.8913
3811 2 20.7525 16.0272 17.7793
4054 2 22.3617 18.8149 17.7793
3661 1 20.7525 16.0272 21.0555
3812 2 20.7525 16.0273 23.024
3904 1 22.3617 18.8149 21.0555
4055 2 22.3617 18.815 23.0241
3662 1 20.7526 16.0273 26.3002
3905 1 22.3617 18.815 26.3003
1215 1 17.5319 27.1782 15.811
3813 2 20.7526 16.0274 28.2687
4091 2 25.5803 24.3901 23.0241
4056 2 22.3618 18.815 28.2688
4072 2 23.971 21.6025 17.7793
4090 2 25.5804 24.39 17.7793
4108 2 27.1898 27.1774 17.7794
3922 1 23.971 21.6025 21.0555
3940 1 25.5803 24.39 21.0556
3958 1 27.1898 27.1775 21.0556
4073 2 23.9709 21.6025 23.0241
936 1 12.7054 18.8173 15.8117
1260 1 27.1899 27.1774 15.8108
954 1 14.3141 21.6043 15.8112
969 1 17.5331 21.6034 15.811
918 1 11.0971 16.0304 15.8128
966 1 19.143 18.8154 15.8109
1227 1 22.3613 24.3901 15.8109
1212 1 19.1421 24.3906 15.811
1209 1 20.7521 21.6028 15.8109
1224 1 23.9711 21.6025 15.8108
1242 1 25.5804 24.3899 15.8108
1876 1 17.5312 29.0365 2.69863
1891 1 20.7507 29.036 2.69864
1894 1 19.1402 31.8232 2.6986
1909 1 22.3599 31.8229 2.69861
1912 1 20.749 34.6096 2.69847
1927 1 23.9692 34.6096 2.69847
1966 2 19.141 29.965 2.04468
1984 2 20.75 32.7515 2.04459
1816 1 19.141 29.9648 5.32118
1834 1 20.7499 32.7511 5.32123
1877 1 17.5312 29.0364 7.94373
1892 1 20.7507 29.0358 7.94371
1895 1 19.14 31.8229 7.94384
1910 1 22.3599 31.8225 7.94384
1913 1 20.7487 34.609 7.94411
1928 1 23.9692 34.609 7.94409
1967 2 19.141 29.9647 7.28976