 vasp.6.3.1 04May22 (build Jun 07 2022 20:36:11) gamma-only                     
  
 executed on             LinuxIFC date 2023.05.25  21:21:00
 running on   96 total cores
 distrk:  each k-point on   96 cores,    1 groups
 distr:  one band on NCORE=  24 cores,    4 groups


--------------------------------------------------------------------------------------------------------


 INCAR:
   SYSTEM = GaN 553 CGM
   NCORE = 24
   ISMEAR = 0
   SIGMA = 0.05
   SYMPREC = 0.001
   ISYM = 0
   LREAL = AUTO
   ALGO = Fast
   EDIFF = 0.0002
   ENCUT = 400
   IBRION = 2
   ISIF = 0
   ISPIN = 2
   LASPH = True
   LMAXMIX = 4
   LORBIT = 11
   LWAVE = False
   MAGMOM = 300*0.6
   NELM = 100
   NSW = 99
   PREC = Accurate
   NWRITE = 0
   NBLOCK = 10

 POTCAR:    PAW_PBE Ga 08Apr2002                  
 POTCAR:    PAW_PBE N 08Apr2002                   
 -----------------------------------------------------------------------------
|                                                                             |
|           W    W    AA    RRRRR   N    N  II  N    N   GGGG   !!!           |
|           W    W   A  A   R    R  NN   N  II  NN   N  G    G  !!!           |
|           W    W  A    A  R    R  N N  N  II  N N  N  G       !!!           |
|           W WW W  AAAAAA  RRRRR   N  N N  II  N  N N  G  GGG   !            |
|           WW  WW  A    A  R   R   N   NN  II  N   NN  G    G                |
|           W    W  A    A  R    R  N    N  II  N    N   GGGG   !!!           |
|                                                                             |
|     For optimal performance we recommend to set                             |
|       NCORE = 2 up to number-of-cores-per-socket                            |
|     NCORE specifies how many cores store one orbital (NPAR=cpu/NCORE).      |
|     This setting can greatly improve the performance of VASP for DFT.       |
|     The default, NCORE=1 might be grossly inefficient on modern             |
|     multi-core architectures or massively parallel machines. Do your        |
|     own testing! More info at https://www.vasp.at/wiki/index.php/NCORE      |
|     Unfortunately you need to use the default for GW and RPA                |
|     calculations (for HF NCORE is supported but not extensively tested      |
|     yet).                                                                   |
|                                                                             |
 -----------------------------------------------------------------------------

 POTCAR:    PAW_PBE Ga 08Apr2002                  
  local pseudopotential read in
  partial core-charges read in
  partial kinetic energy density read in
  atomic valenz-charges read in
  non local Contribution for L=           0  read in
    real space projection operators read in
  non local Contribution for L=           0  read in
    real space projection operators read in
  non local Contribution for L=           1  read in
    real space projection operators read in
  non local Contribution for L=           1  read in
    real space projection operators read in
  non local Contribution for L=           2  read in
    real space projection operators read in
    PAW grid and wavefunctions read in
 
   number of l-projection  operators is LMAX  =           5
   number of lm-projection operators is LMMAX =          13
 
 POTCAR:    PAW_PBE N 08Apr2002                   
  local pseudopotential read in
  partial core-charges read in
  partial kinetic energy density read in
  atomic valenz-charges read in
  non local Contribution for L=           0  read in
    real space projection operators read in
  non local Contribution for L=           0  read in
    real space projection operators read in
  non local Contribution for L=           1  read in
    real space projection operators read in
  non local Contribution for L=           1  read in
    real space projection operators read in
    PAW grid and wavefunctions read in
 
   number of l-projection  operators is LMAX  =           4
   number of lm-projection operators is LMMAX =           8
 
 Optimization of the real space projectors (new method)

 maximal supplied QI-value         = 14.36
 optimisation between [QCUT,QGAM] = [ 10.20, 20.39] = [ 29.12,116.47] Ry 
 Optimized for a Real-space Cutoff    1.46 Angstroem

   l    n(q)    QCUT    max X(q) W(low)/X(q) W(high)/X(q)  e(spline) 
   0      9    10.197    81.156    0.11E-03    0.10E-03    0.46E-07
   0      9    10.197    65.205    0.11E-03    0.11E-03    0.47E-07
   1      8    10.197    44.874    0.19E-03    0.28E-04    0.13E-06
   1      8    10.197    25.010    0.20E-03    0.22E-04    0.14E-06
   2      8    10.197     5.217    0.15E-03    0.18E-03    0.57E-07
 Optimization of the real space projectors (new method)

 maximal supplied QI-value         = 25.13
 optimisation between [QCUT,QGAM] = [ 10.05, 20.36] = [ 28.30,116.06] Ry 
 Optimized for a Real-space Cutoff    1.70 Angstroem

   l    n(q)    QCUT    max X(q) W(low)/X(q) W(high)/X(q)  e(spline) 
   0     10    10.053    79.467    0.61E-04    0.98E-04    0.61E-06
   0     10    10.053    66.151    0.60E-04    0.98E-04    0.61E-06
   1     10    10.053     8.350    0.17E-03    0.71E-03    0.45E-05
   1     10    10.053     5.531    0.18E-03    0.77E-03    0.49E-05
  PAW_PBE Ga 08Apr2002                  :
 energy of atom  1       EATOM=  -58.8688
 kinetic energy error for atom=    0.0001 (will be added to EATOM!!)
  PAW_PBE N 08Apr2002                   :
 energy of atom  2       EATOM= -264.5486
 kinetic energy error for atom=    0.0736 (will be added to EATOM!!)
 
 
 POSCAR: Ga150 N150
  positions in direct lattice
  velocities in cartesian coordinates
 
  There are predictor-coordinates on the file.
  we can't use them due to change of POTIM!
 exchange correlation table for  LEXCH =        8
   RHO(1)=    0.500       N(1)  =     2000
   RHO(2)=  100.500       N(2)  =     4000

 VTST: version 4.2, (08/11/21)

 CHAIN: initializing optimizer
 
 OPT: Using VASP Conjugate-Gradient optimizer
 CHAIN: Read ICHAIN            0
 
 POSCAR: Ga150 N150
  positions in direct lattice
  velocities in cartesian coordinates
 
  There are predictor-coordinates on the file.
  we can't use them due to change of POTIM!
 


--------------------------------------------------------------------------------------------------------


 ion  position               nearest neighbor table
   1  0.069  0.135  0.335- 226 1.96 286 1.97 152 1.97 229 1.97  16 3.05  73 3.16 137 3.17  19 3.18
                            76 3.19  80 3.19   4 3.20  77 3.22  79 3.24  61 3.28 136 3.32
   2  0.065  0.127  0.659- 227 1.94 287 1.96 230 1.99 153 2.02  77 3.03 137 3.15 138 3.18  74 3.20
                            17 3.21  80 3.23  14 3.23   5 3.25  62 3.25  78 3.28  81 3.31  20 3.31
   3  0.072  0.133  0.993- 228 1.95 231 1.95 288 1.99 151 2.06  78 3.05  21 3.12  18 3.15  81 3.19
                            15 3.19   6 3.23 136 3.24  79 3.27  75 3.28 138 3.29  63 3.32  76 3.35
   4  0.064  0.330  0.335- 289 1.91 229 1.94 155 1.98 232 2.02  19 3.09  61 3.14  80 3.16  83 3.20
                             1 3.20 139 3.20  64 3.21  82 3.23 140 3.23  79 3.27  22 3.28   7 3.30
   5  0.070  0.331  0.666- 156 1.94 230 1.94 290 1.96 233 1.99  81 3.06  80 3.17  23 3.19  62 3.21
                            20 3.21   8 3.22  83 3.23 140 3.23   2 3.25  65 3.27  84 3.27 141 3.31
   6  0.065  0.329  0.005- 291 1.95 154 1.98 231 1.99 234 2.00  79 3.12  82 3.17   9 3.19 141 3.20
                            63 3.20  21 3.21  66 3.23   3 3.23 139 3.23  24 3.24  81 3.26  84 3.32
   7  0.062  0.535  0.341- 158 1.90 235 1.94 232 2.00 292 2.03  86 3.07  10 3.09 143 3.14  83 3.17
                            22 3.18  64 3.21  67 3.24 142 3.25   4 3.30  25 3.31  85 3.33  82 3.34
   8  0.075  0.533  0.668- 236 1.96 159 1.97 233 2.00 293 2.01  26 3.04  87 3.08  84 3.16  83 3.20
                             5 3.22  23 3.23 144 3.26  86 3.27  65 3.28  11 3.28 143 3.31  68 3.32
   9  0.073  0.531  1.000- 234 1.96 237 1.98 157 2.00 294 2.06  27 3.14  84 3.14  85 3.15  82 3.16
                             6 3.19 144 3.20  24 3.22  12 3.28  66 3.31  69 3.31 142 3.32  87 3.34
  10  0.067  0.729  0.329- 235 1.92 238 1.98 295 2.00 161 2.03 145 3.09   7 3.09  13 3.13  25 3.16
                            70 3.16  88 3.17  86 3.20  85 3.21 146 3.25  89 3.31  28 3.35  67 3.35
  11  0.070  0.735  0.666- 162 1.95 236 1.99 239 1.99 296 2.00  87 3.06  14 3.13  29 3.16 146 3.18
                            86 3.22 147 3.22  89 3.23  26 3.28   8 3.28  68 3.29  71 3.31
  12  0.062  0.729  0.999- 160 1.93 297 1.94 240 1.97 237 2.00  90 3.08  69 3.13  72 3.15  85 3.21
                           145 3.22  15 3.23  88 3.24 147 3.27   9 3.28  87 3.28  27 3.29  30 3.35
  13  0.070  0.925  0.334- 238 1.90 298 1.98 164 2.00 226 2.04  89 3.10  10 3.13  88 3.17  70 3.17
                           148 3.18  28 3.19 149 3.21  76 3.23  73 3.32  16 3.35
  14  0.069  0.929  0.676- 239 1.95 227 1.97 165 1.99 299 2.03 150 3.08  11 3.13  29 3.19  78 3.21
                            90 3.22   2 3.23  74 3.29  89 3.31  17 3.34 149 3.34  77 3.36
  15  0.062  0.930  0.005- 163 1.98 300 1.99 240 2.03 228 2.03  90 3.10  72 3.16  75 3.18 148 3.19
                             3 3.19  88 3.21  12 3.23  76 3.26  18 3.27 150 3.28  78 3.35
  16  0.264  0.145  0.342- 167 1.91 226 1.95 244 2.00 241 2.08   1 3.05  95 3.08  77 3.09  19 3.16
                            34 3.16  76 3.22  31 3.26  92 3.29  94 3.30  13 3.35
  17  0.271  0.141  0.667- 245 1.96 242 1.97 168 1.97 227 1.98  20 3.10  35 3.14  92 3.17  77 3.17
                             2 3.21  78 3.22  96 3.23  93 3.23  95 3.23  32 3.27  14 3.34  29 3.36
  18  0.267  0.131  0.007- 166 1.93 228 1.95 246 1.95 243 1.99  91 3.13   3 3.15  94 3.16  76 3.17
                            21 3.21  33 3.22  36 3.23  96 3.24  78 3.25  30 3.26  15 3.27  93 3.33
  19  0.259  0.339  0.328- 244 1.92 229 1.93 170 1.98 247 2.04   4 3.09  79 3.13  34 3.14  16 3.16
                            97 3.17  80 3.18   1 3.18  22 3.21  94 3.24  95 3.28  98 3.33
  20  0.271  0.333  0.670- 245 1.86 248 1.94 171 1.96 230 2.05  35 3.05  17 3.10  23 3.10  95 3.12
                            38 3.15  99 3.16  98 3.19   5 3.21  81 3.22  96 3.26  80 3.29   2 3.31
  21  0.264  0.329  0.996- 249 1.91 231 1.93 246 1.95 169 2.02  99 3.07  96 3.12  24 3.12   3 3.12
                            94 3.19  18 3.21   6 3.21  79 3.22  36 3.24  97 3.26  81 3.27  39 3.29
  22  0.262  0.539  0.327- 247 1.90 232 1.96 250 2.02 173 2.08  82 3.11  25 3.18   7 3.18  37 3.21
                            19 3.21 101 3.21 100 3.22  83 3.24  97 3.27   4 3.28  40 3.29
  23  0.272  0.526  0.676- 248 1.91 233 1.95 174 1.97 251 2.03  38 3.07  20 3.10  98 3.10  84 3.12
                            99 3.15  26 3.18   5 3.19 102 3.22   8 3.23  41 3.24
  24  0.270  0.526  1.000- 172 1.94 234 1.95 249 1.96 252 1.96  97 3.08  39 3.10  21 3.12 102 3.16
                            99 3.17  84 3.21   9 3.22   6 3.24 100 3.28  82 3.28  27 3.30  42 3.30
  25  0.268  0.740  0.333- 253 1.94 250 1.96 176 1.97 235 1.98  28 3.13  10 3.16  22 3.18 104 3.19
                           101 3.19  43 3.19 103 3.20  86 3.21  40 3.24  85 3.28   7 3.31 100 3.31
  26  0.265  0.720  0.669- 236 1.93 177 1.96 251 1.96 254 2.06   8 3.04  87 3.12  23 3.18 102 3.20
                           101 3.20  41 3.21 105 3.21  11 3.28  86 3.28  44 3.32 104 3.33  29 3.36
  27  0.266  0.728  0.999- 252 1.97 237 1.97 255 1.99 175 2.00 102 3.09 100 3.12   9 3.14  85 3.16
                           105 3.23  30 3.23 103 3.26  42 3.26  45 3.27  12 3.29  24 3.30
  28  0.274  0.937  0.332- 253 1.91 241 1.99 179 2.02 238 2.02  43 3.07  25 3.13  91 3.16  13 3.19
                            31 3.20 103 3.23  88 3.24  89 3.25 104 3.26  92 3.27  10 3.35
  29  0.267  0.930  0.664- 239 1.95 242 1.97 254 1.98 180 2.03  92 3.14  11 3.16 104 3.17 105 3.18
                            14 3.19  89 3.19  44 3.21  93 3.21  32 3.28  26 3.36  17 3.36
  30  0.274  0.932  0.009- 178 1.97 243 1.98 255 2.00 240 2.00 103 3.03  45 3.14  88 3.15  91 3.18
                            33 3.18  90 3.19  27 3.23  18 3.26 105 3.30  93 3.33  12 3.35
  31  0.465  0.143  0.334- 182 1.96 241 1.97 259 2.00 256 2.00 110 3.16  91 3.16  49 3.18  28 3.20
                           107 3.20 106 3.25  16 3.26  43 3.27  92 3.27 109 3.30  46 3.30  34 3.31
  32  0.471  0.134  0.660- 257 1.97 242 1.97 260 2.00 183 2.00  92 3.10 111 3.15 107 3.19  50 3.23
                           108 3.25  44 3.25  17 3.27 110 3.27  47 3.27  29 3.28  93 3.32  35 3.36
  33  0.467  0.133  0.988- 258 1.93 261 1.94 243 1.96 181 2.04  93 3.10 111 3.10 108 3.17  30 3.18
                            36 3.20  48 3.22  18 3.22  45 3.26  51 3.29 109 3.34 106 3.35
  34  0.457  0.344  0.330- 244 1.94 185 1.97 259 2.02 262 2.03  94 3.12  19 3.14  16 3.16 110 3.21
                           113 3.22  95 3.22 112 3.24  52 3.24  37 3.27  31 3.31 109 3.33  49 3.36
  35  0.463  0.339  0.669- 186 1.89 245 1.98 263 1.99 260 2.07  20 3.05  38 3.08  17 3.14  53 3.14
                           114 3.15  96 3.21 110 3.21  95 3.25 111 3.28  50 3.30 113 3.32  32 3.36
  36  0.467  0.332  0.994- 264 1.92 246 1.92 261 2.01 184 2.02 114 2.95  96 3.02 109 3.12  54 3.19
                            33 3.20  51 3.21  18 3.23  21 3.24  39 3.25  94 3.27 111 3.32 112 3.33
  37  0.467  0.551  0.335- 188 1.94 262 1.96 265 2.00 247 2.03  40 3.02 116 3.04  52 3.13  55 3.14
                           113 3.16  22 3.21 115 3.23  34 3.27  97 3.29  98 3.33
  38  0.465  0.531  0.672- 189 1.91 263 1.93 248 1.96 266 2.02  23 3.07  35 3.08  53 3.12  56 3.15
                            20 3.15  99 3.17  41 3.17 113 3.20 117 3.21  98 3.24 114 3.25 116 3.36
  39  0.467  0.534  0.997- 267 1.89 249 1.91 264 1.94 187 1.98 114 3.10  24 3.10  99 3.11 112 3.14
                            57 3.17 117 3.18  42 3.19  97 3.20  36 3.25  54 3.25  21 3.29 115 3.29
  40  0.470  0.740  0.331- 265 1.86 250 1.99 191 2.00 268 2.00  37 3.02  58 3.16  55 3.17 119 3.18
                           116 3.18 118 3.20 101 3.21 100 3.22  43 3.24  25 3.24 115 3.24  22 3.29
  41  0.470  0.730  0.663- 269 1.93 266 1.93 251 1.97 192 2.04 116 3.08  38 3.17  59 3.17 117 3.20
                            56 3.21  26 3.21  44 3.24  23 3.24 101 3.25 119 3.26 120 3.34
  42  0.472  0.734  0.998- 270 1.90 267 1.96 190 1.98 252 1.99 117 3.12  60 3.13 115 3.14 100 3.15
                           102 3.16 120 3.16  39 3.19  45 3.20 118 3.22  57 3.23  27 3.26  24 3.30
  43  0.466  0.939  0.335- 253 1.93 268 1.95 194 1.98 256 1.98  28 3.07 107 3.11  46 3.17 104 3.17
                           106 3.19  25 3.19 119 3.21  58 3.22 103 3.22  40 3.24  31 3.27 118 3.35
  44  0.467  0.930  0.661- 254 1.91 269 1.97 257 2.02 195 2.04 104 3.10 119 3.15  29 3.21  59 3.22
                           120 3.23  41 3.24  32 3.25 108 3.27  47 3.28 105 3.31  26 3.32 107 3.32
  45  0.469  0.932  0.998- 255 1.95 270 1.96 193 1.97 258 2.04 120 3.05  30 3.14  60 3.17 118 3.18
                           103 3.18  42 3.20  48 3.24  33 3.26  27 3.27 105 3.29 108 3.29 106 3.30
  46  0.665  0.133  0.326- 256 1.94 274 1.96 271 1.97 197 2.05 124 3.07 121 3.08 106 3.11  58 3.15
                           107 3.15  43 3.17  61 3.21  64 3.23  31 3.30 125 3.31 122 3.31  49 3.34
  47  0.673  0.132  0.656- 272 1.94 275 1.96 198 2.00 257 2.03 122 3.04 125 3.11  62 3.12 107 3.17
                            65 3.19  59 3.24 108 3.27  32 3.27  44 3.28 123 3.28 126 3.29  50 3.36
  48  0.667  0.135  0.008- 196 1.97 276 1.97 273 1.99 258 2.01 106 3.15  66 3.16 121 3.16 124 3.18
                           126 3.21  33 3.22  63 3.23  45 3.24  51 3.26  60 3.29 108 3.33 123 3.35
  49  0.663  0.340  0.335- 200 1.93 277 1.98 274 2.01 259 2.02  67 3.03 127 3.17  31 3.18 124 3.20
                           110 3.21 128 3.22 125 3.23  64 3.31 109 3.32  46 3.34  52 3.35  34 3.36
  50  0.668  0.338  0.668- 278 1.94 275 1.97 201 1.97 260 2.00 111 3.08  68 3.14 129 3.18 128 3.19
                            53 3.20 125 3.23  32 3.23  65 3.27  35 3.30 126 3.31  47 3.36
  51  0.669  0.339  0.995- 279 1.91 276 1.97 261 1.98 199 1.98  54 3.08 129 3.12  69 3.18  36 3.21
                           111 3.22  66 3.23 126 3.23 109 3.25  48 3.26 127 3.26  33 3.29 124 3.34
  52  0.658  0.545  0.333- 280 1.93 262 1.93 203 1.93 277 2.04 131 3.07  55 3.09  37 3.13 113 3.16
                           112 3.18 130 3.20  70 3.23  34 3.24  49 3.35
  53  0.659  0.532  0.673- 263 1.93 204 1.95 281 1.95 278 1.99  56 3.01  71 3.12  38 3.12  35 3.14
                           132 3.19 129 3.19  50 3.20 128 3.24 114 3.26 131 3.31 113 3.34
  54  0.667  0.528  0.997- 279 1.91 282 1.93 264 1.97 202 2.01 132 3.07  51 3.08 129 3.15 112 3.17
                           114 3.18  57 3.19  36 3.19 130 3.20  69 3.21 127 3.25  39 3.25  72 3.26
  55  0.667  0.741  0.332- 265 1.94 280 1.97 283 1.98 206 2.01  52 3.09 134 3.12  37 3.14  40 3.17
                            58 3.17 115 3.19 133 3.21 131 3.24 116 3.25  73 3.25 130 3.35
  56  0.665  0.722  0.665- 281 1.90 266 1.96 284 1.98 207 2.03  53 3.01  71 3.11 131 3.14  38 3.15
                           135 3.18  41 3.21 134 3.24 117 3.24 116 3.27  74 3.29  59 3.31 132 3.32
  57  0.668  0.727  0.992- 285 1.92 267 1.94 282 1.95 205 2.01 132 3.01 117 3.11 135 3.16  39 3.17
                           130 3.18  72 3.18  54 3.19  42 3.23 115 3.23  75 3.24 133 3.29  60 3.30
  58  0.665  0.937  0.333- 268 1.94 271 1.95 283 1.98 209 2.00  46 3.15 119 3.15 121 3.15  40 3.16
                           122 3.17  55 3.17 118 3.19  43 3.22  61 3.23 134 3.30  73 3.31 133 3.35
  59  0.666  0.928  0.668- 269 1.95 284 1.99 210 2.00 272 2.00  41 3.17 135 3.18  74 3.19  44 3.22
                           123 3.22 134 3.23  47 3.24 119 3.25 122 3.29 120 3.29  62 3.29  56 3.31
  60  0.665  0.930  0.001- 270 1.93 208 1.94 273 1.95 285 2.01 118 3.11  42 3.13 133 3.14  45 3.17
                            75 3.22  63 3.23 120 3.24 123 3.25  48 3.29  57 3.30 121 3.30
  61  0.867  0.137  0.336- 271 1.92 212 1.92 289 1.98 286 2.02 139 3.11 140 3.14   4 3.14 122 3.17
                            64 3.17 137 3.17 121 3.20  46 3.21  73 3.22  58 3.23   1 3.28
  62  0.868  0.135  0.670- 290 1.93 272 1.96 213 1.99 287 2.03 138 3.07  47 3.12 123 3.17 140 3.18
                            65 3.19   5 3.21   2 3.25 141 3.27  74 3.28 122 3.28  59 3.29 137 3.32
  63  0.865  0.131  0.000- 211 1.96 291 1.97 273 1.98 288 2.05 136 3.17  66 3.20   6 3.20 123 3.21
                            75 3.21 139 3.22 141 3.23  48 3.23 121 3.23  60 3.23   3 3.32 138 3.36
  64  0.866  0.334  0.331- 289 1.91 292 1.93 215 2.02 274 2.02 142 3.12 124 3.12  67 3.15 139 3.16
                            61 3.17   7 3.21   4 3.21  46 3.23 143 3.24 125 3.27 140 3.30  49 3.31
  65  0.868  0.333  0.663- 290 1.96 293 1.97 275 2.01 216 2.02 143 3.12 140 3.13  68 3.16  47 3.19
                            62 3.19 125 3.21  50 3.27 141 3.27   5 3.27   8 3.28 126 3.31 144 3.31
  66  0.865  0.330  0.008- 214 1.93 291 1.98 294 1.99 276 1.99  48 3.16 142 3.17 139 3.17 124 3.19
                            63 3.20 141 3.21  51 3.23   6 3.23  69 3.26   9 3.31 126 3.31 144 3.33
  67  0.856  0.524  0.339- 292 1.96 277 1.96 218 1.97 295 2.00  49 3.03 128 3.14  64 3.15 127 3.17
                           143 3.17  70 3.22   7 3.24 146 3.25 142 3.26 145 3.29  10 3.35
  68  0.867  0.529  0.660- 293 1.95 278 1.95 296 1.96 219 2.05 143 3.07 128 3.13  50 3.14  65 3.16
                           146 3.18  71 3.18 147 3.24 129 3.27  11 3.29   8 3.32 144 3.32
  69  0.869  0.534  0.005- 217 1.94 297 1.97 279 1.98 294 2.00  12 3.13 145 3.16 127 3.16  72 3.18
                            51 3.18 142 3.19  54 3.21 144 3.26  66 3.26 129 3.27 147 3.31   9 3.31
  70  0.871  0.731  0.333- 295 1.92 298 1.96 221 2.01 280 2.07 148 3.14 145 3.16  10 3.16  13 3.17
                           146 3.18 149 3.19  67 3.22  52 3.23 131 3.27 130 3.34  73 3.36
  71  0.857  0.722  0.670- 281 1.90 222 1.98 296 2.00 299 2.05 147 3.08  56 3.11  53 3.12  68 3.18
                           132 3.20 146 3.26 131 3.26  74 3.29 150 3.30  11 3.31 149 3.32
  72  0.868  0.731  0.001- 282 1.92 220 1.98 300 1.98 297 1.99 130 3.13 132 3.13  12 3.15  15 3.16
                            69 3.18  57 3.18  75 3.25  54 3.26 145 3.26 147 3.27 148 3.27 150 3.36
  73  0.872  0.940  0.331- 286 1.95 224 2.00 298 2.00 283 2.01 137 3.13 148 3.15   1 3.16 136 3.21
                            61 3.22  55 3.25 133 3.29 149 3.30 134 3.31  58 3.31  13 3.32  70 3.36
  74  0.865  0.930  0.663- 225 1.89 287 1.95 299 1.97 284 1.98 138 3.14 150 3.15 135 3.15 134 3.18
                            59 3.19   2 3.20 149 3.21 137 3.24  62 3.28  56 3.29  71 3.29  14 3.29
  75  0.866  0.932  0.994- 300 1.96 288 1.97 285 2.00 223 2.02 150 3.13  15 3.18 135 3.19 133 3.19
                           136 3.20  63 3.21  60 3.22  57 3.24  72 3.25 138 3.26   3 3.28
  76  0.137  0.067  0.172- 166 1.92 226 1.98 151 1.98 163 2.02  18 3.17  91 3.17   1 3.19  16 3.22
                           136 3.22  79 3.22  94 3.23  13 3.23  15 3.26  88 3.26 148 3.27   3 3.35
  77  0.138  0.072  0.504- 167 1.92 152 1.95 164 2.00 227 2.03   2 3.03  16 3.09  92 3.17  17 3.17
                            95 3.17  80 3.22   1 3.22 137 3.25  89 3.26 149 3.33  14 3.36
  78  0.138  0.073  0.834- 228 1.95 153 1.97 165 1.98 168 2.03   3 3.05  96 3.16  93 3.21  81 3.21
                            14 3.21  17 3.22 138 3.23 150 3.25  18 3.25  90 3.27   2 3.28  15 3.35
  79  0.133  0.265  0.165- 154 1.90 151 1.94 229 1.97 169 1.99   6 3.12  19 3.13  94 3.18 136 3.19
                            21 3.22  76 3.22  82 3.22   1 3.24 139 3.25  97 3.26   4 3.27   3 3.27
  80  0.136  0.271  0.498- 170 1.93 230 1.96 152 1.97 155 1.99  95 3.08  98 3.13  83 3.14   4 3.16
                             5 3.17  19 3.18   1 3.19  77 3.22   2 3.23 140 3.25 137 3.29  20 3.29
  81  0.126  0.266  0.829- 156 1.93 153 1.97 171 2.00 231 2.00   5 3.06 141 3.13  84 3.18 138 3.18
                             3 3.19  78 3.21  20 3.22  99 3.24   6 3.26  21 3.27   2 3.31
  82  0.130  0.464  0.167- 232 1.97 157 1.97 172 1.97 154 1.98  22 3.11   9 3.16   6 3.17  85 3.18
                           142 3.20  79 3.22   4 3.23  97 3.26  24 3.28 139 3.28   7 3.34
  83  0.135  0.466  0.499- 173 1.87 155 1.96 158 1.98 233 2.02  98 3.08  80 3.14   7 3.17   8 3.20
                             4 3.20   5 3.23 101 3.24  22 3.24  86 3.25 143 3.28 140 3.29
  84  0.137  0.469  0.834- 159 1.93 156 1.96 234 1.98 174 1.99  23 3.12 102 3.13   9 3.14   8 3.16
                            81 3.18 144 3.19  24 3.21 141 3.21  87 3.24   5 3.27  99 3.31   6 3.32
  85  0.134  0.663  0.162- 175 1.93 157 1.94 160 1.94 235 2.08   9 3.15  27 3.16  82 3.18 145 3.19
                            12 3.21  10 3.21  88 3.22 142 3.22 100 3.23  25 3.28 103 3.30   7 3.33
  86  0.132  0.667  0.497- 158 1.93 161 1.97 176 2.00 236 2.03   7 3.07 146 3.15  10 3.20  25 3.21
                            11 3.22  89 3.22 101 3.22  83 3.25 104 3.26   8 3.27 143 3.27  26 3.28
  87  0.127  0.665  0.824- 159 1.92 177 1.92 162 1.97 237 2.09  11 3.06   8 3.08 144 3.11  26 3.12
                           147 3.17 105 3.19  90 3.24  84 3.24  12 3.28 102 3.32   9 3.34
  88  0.135  0.864  0.167- 238 1.95 163 1.97 178 1.99 160 2.01  30 3.15  10 3.17  13 3.17  15 3.21
                            85 3.22 145 3.23 103 3.23  28 3.24  12 3.24  76 3.26 148 3.26  91 3.28
  89  0.136  0.868  0.498- 161 1.94 164 1.95 239 1.95 179 2.01  13 3.10  92 3.17  29 3.19 149 3.19
                           146 3.21  86 3.22  11 3.23  28 3.25 104 3.25  77 3.26  14 3.31  10 3.31
  90  0.136  0.869  0.847- 240 1.91 180 1.94 165 2.00 162 2.06  12 3.08  15 3.10  93 3.15 105 3.17
                            30 3.19  14 3.22  87 3.24  78 3.27 150 3.29 147 3.34
  91  0.336  0.070  0.169- 178 1.96 181 1.97 241 1.99 166 1.99  18 3.13 106 3.15  28 3.16  31 3.16
                            76 3.17  30 3.18 109 3.20  94 3.25 103 3.27  88 3.28
  92  0.332  0.066  0.506- 179 1.96 182 1.97 242 2.00 167 2.01  32 3.10  29 3.14  17 3.17  77 3.17
                            89 3.17 110 3.24 104 3.26  28 3.27  31 3.27  16 3.29 107 3.30
  93  0.332  0.063  0.831- 180 1.95 168 1.97 243 2.01 183 2.01  33 3.10  90 3.15  78 3.21  29 3.21
                           105 3.22  17 3.23  96 3.23 111 3.26 108 3.32  32 3.32  18 3.33  30 3.33
  94  0.334  0.271  0.165- 244 1.94 166 1.96 169 1.97 184 2.01  34 3.12 109 3.14  97 3.16  18 3.16
                            79 3.18  21 3.19  76 3.23  19 3.24  91 3.25  36 3.27 112 3.29  16 3.30
  95  0.329  0.275  0.500- 245 1.92 185 1.95 170 1.95 167 2.00  16 3.08  80 3.08 110 3.11  20 3.12
                            98 3.12  77 3.17 113 3.21  34 3.22  17 3.23  35 3.25  19 3.28
  96  0.338  0.266  0.840- 168 1.91 246 1.95 186 1.97 171 2.00 114 3.00  36 3.02  99 3.08  21 3.12
                            78 3.16  35 3.21  17 3.23  93 3.23  18 3.24  20 3.26 111 3.30
  97  0.335  0.468  0.163- 169 1.90 187 1.96 247 2.01 172 2.04  24 3.08  94 3.16  19 3.17 112 3.18
                            39 3.20  79 3.26  21 3.26  82 3.26  22 3.27 100 3.28  37 3.29 115 3.35
  98  0.327  0.468  0.507- 248 1.89 170 1.95 173 1.99 188 2.00  83 3.08  23 3.10  95 3.12  80 3.13
                           113 3.15 101 3.18  20 3.19  38 3.24 116 3.24  19 3.33  37 3.33
  99  0.336  0.457  0.838- 249 1.93 171 1.96 174 1.98 189 2.02 114 3.01  21 3.07  96 3.08  39 3.11
                            23 3.15  20 3.16  24 3.17  38 3.17  81 3.24  84 3.31 117 3.31 102 3.36
 100  0.340  0.674  0.161- 190 1.91 175 1.95 250 1.97 172 2.05  27 3.12 103 3.14  42 3.15 118 3.18
                           115 3.22  22 3.22  40 3.22  85 3.23  24 3.28  97 3.28  25 3.31
 101  0.334  0.669  0.495- 176 1.92 191 1.96 173 1.96 251 2.03 116 3.11 104 3.15  98 3.18  25 3.19
                            26 3.20  40 3.21  22 3.21  86 3.22 119 3.23  83 3.24  41 3.25
 102  0.332  0.663  0.840- 252 1.95 174 1.95 177 1.99 192 1.99  27 3.09  84 3.13  42 3.16  24 3.16
                            26 3.20 117 3.20 120 3.21 105 3.21  23 3.22  87 3.32  99 3.36
 103  0.339  0.869  0.164- 178 1.91 193 1.97 175 1.97 253 1.99  30 3.03 100 3.14 106 3.16  45 3.18
                           118 3.20  25 3.20  43 3.22  28 3.23  88 3.23  27 3.26  91 3.27  85 3.30
 104  0.337  0.866  0.501- 176 1.96 179 1.96 194 1.99 254 2.01  44 3.10 101 3.15  43 3.17  29 3.17
                           119 3.18  25 3.19  89 3.25  28 3.26  86 3.26  92 3.26 107 3.31  26 3.33
 105  0.327  0.860  0.831- 180 1.99 177 1.99 195 2.00 255 2.00 120 3.13  90 3.17  29 3.18  87 3.19
                           102 3.21  26 3.21  93 3.22  27 3.23  45 3.29  30 3.30  44 3.31
 106  0.531  0.069  0.168- 196 1.91 256 1.96 193 1.97 181 2.06  46 3.11  91 3.15  48 3.15 103 3.16
                            43 3.19 124 3.21  31 3.25 118 3.26 121 3.28  45 3.30 109 3.30  33 3.35
 107  0.541  0.074  0.493- 197 1.87 257 1.93 194 1.96 182 2.09 125 3.07  43 3.11  46 3.15 122 3.17
                            47 3.17  32 3.19  31 3.20 119 3.26  92 3.30 104 3.31  44 3.32
 108  0.541  0.070  0.828- 198 1.93 183 1.94 258 1.98 195 1.99 126 3.02 111 3.08 123 3.12 120 3.13
                            33 3.17  32 3.25  47 3.27  44 3.27  45 3.29  93 3.32  48 3.33
 109  0.530  0.274  0.160- 184 1.89 181 2.00 259 2.04 199 2.07  36 3.12  94 3.14  91 3.20 112 3.22
                           127 3.23  51 3.25 124 3.28  31 3.30 106 3.30  49 3.32  34 3.33  33 3.34
 110  0.523  0.277  0.496- 185 1.94 182 1.98 260 1.99 200 2.09  95 3.11  31 3.16 113 3.19  49 3.21
                            34 3.21  35 3.21 128 3.23  92 3.24  32 3.27
 111  0.539  0.260  0.826- 201 1.92 183 1.96 261 1.97 186 2.04  50 3.08 108 3.08  33 3.10 126 3.12
                            32 3.15  51 3.22  93 3.26 129 3.27  35 3.28 114 3.28  96 3.30  36 3.32
 112  0.536  0.477  0.162- 202 1.95 187 1.98 184 1.99 262 2.02 130 3.10  39 3.14  54 3.17  97 3.18
                            52 3.18 115 3.19 109 3.22  34 3.24  94 3.29 127 3.30  36 3.33
 113  0.527  0.477  0.497- 188 1.92 185 1.97 203 1.99 263 2.00 116 3.10 131 3.12  98 3.15  52 3.16
                            37 3.16 110 3.19  38 3.20  95 3.21  34 3.22 128 3.31  35 3.32  53 3.34
 114  0.522  0.454  0.841- 264 1.89 186 1.96 189 1.97 204 2.03  36 2.95  96 3.00  99 3.01  39 3.10
                            35 3.15  54 3.18  38 3.25  53 3.26 111 3.28 129 3.35
 115  0.541  0.677  0.163- 190 1.92 265 1.97 205 1.99 187 1.99 133 3.07 118 3.14  42 3.14 130 3.17
                            55 3.19 112 3.19 100 3.22  57 3.23  37 3.23  40 3.24  39 3.29  97 3.35
 116  0.527  0.670  0.497- 191 1.90 188 1.91 266 1.95 206 1.98  37 3.04  41 3.08 113 3.10 101 3.11
                           119 3.14 134 3.18  40 3.18  98 3.24  55 3.25  56 3.27 131 3.28  38 3.36
 117  0.534  0.670  0.835- 207 1.92 192 1.96 267 1.97 189 2.02  57 3.11  42 3.12 135 3.15  39 3.18
                           102 3.20  41 3.20  38 3.21  56 3.24 120 3.25  99 3.31 132 3.32
 118  0.538  0.871  0.164- 208 1.89 193 1.97 190 1.97 268 2.02  60 3.11 115 3.14 121 3.18  45 3.18
                           100 3.18  58 3.19  40 3.20 103 3.20 133 3.21  42 3.22 106 3.26  43 3.35
 119  0.536  0.869  0.497- 209 1.91 194 1.93 191 1.93 269 2.03 116 3.14  58 3.15  44 3.15 122 3.17
                           104 3.18  40 3.18  43 3.21 134 3.21 101 3.23  59 3.25  41 3.26 107 3.26
 120  0.525  0.868  0.836- 195 1.93 270 1.96 192 2.00 210 2.06  45 3.05 105 3.13 108 3.13  42 3.16
                           102 3.21  44 3.23  60 3.24 117 3.25 123 3.28  59 3.29  41 3.34
 121  0.735  0.069  0.170- 271 1.94 211 1.96 196 2.00 208 2.02  46 3.08 139 3.08  58 3.15  48 3.16
                           118 3.18  61 3.20  63 3.23 124 3.25 133 3.28 136 3.28 106 3.28  60 3.30
 122  0.733  0.066  0.499- 272 1.97 212 1.97 209 1.99 197 2.00  47 3.04 140 3.16 107 3.17  61 3.17
                            58 3.17 119 3.17 137 3.22 125 3.27  62 3.28  59 3.29 134 3.29  46 3.31
 123  0.733  0.066  0.833- 198 1.92 213 1.96 210 1.99 273 2.08 126 3.07 108 3.12  62 3.17  63 3.21
                            59 3.22 138 3.24  60 3.25 120 3.28  47 3.28 141 3.29  48 3.35
 124  0.731  0.269  0.172- 274 1.89 196 1.98 214 1.99 199 2.01  46 3.07  64 3.12 127 3.15  48 3.18
                            66 3.19  49 3.20 142 3.20 106 3.21 121 3.25 139 3.26 109 3.28  51 3.34
 125  0.729  0.267  0.500- 197 1.96 275 1.98 215 1.98 200 1.99 107 3.07  47 3.11 143 3.19  65 3.21
                            50 3.23  49 3.23 140 3.26 122 3.27  64 3.27 128 3.28  46 3.31
 126  0.731  0.256  0.834- 198 1.94 276 1.99 216 2.00 201 2.00 108 3.02 123 3.07 111 3.12 141 3.15
                            48 3.21  51 3.23  47 3.29  65 3.31  50 3.31  66 3.31
 127  0.736  0.467  0.168- 199 1.91 217 1.92 202 1.96 277 1.98 124 3.15  69 3.16  67 3.17 142 3.17
                            49 3.17 145 3.18 109 3.23 130 3.24  54 3.25  51 3.26 112 3.30
 128  0.729  0.471  0.503- 203 1.94 218 1.97 200 1.98 278 1.99 131 3.10  68 3.13  67 3.14  50 3.19
                            49 3.22 110 3.23  53 3.24 146 3.28 125 3.28 143 3.29 113 3.31
 129  0.737  0.469  0.833- 219 1.93 279 1.96 201 2.01 204 2.01 132 3.10 147 3.11  51 3.12  54 3.15
                            50 3.18  53 3.19 144 3.25  69 3.27  68 3.27 111 3.27 114 3.35
 130  0.732  0.666  0.160- 205 1.88 202 1.95 220 1.99 280 2.03 112 3.10  72 3.13 115 3.17  57 3.18
                           133 3.19  52 3.20  54 3.20 148 3.22 127 3.24 145 3.30  70 3.34  55 3.35
 131  0.727  0.663  0.497- 206 1.90 203 1.97 221 1.98 281 1.99  52 3.07 128 3.10 113 3.12  56 3.14
                           134 3.16  55 3.24  71 3.26  70 3.27 149 3.28 116 3.28  53 3.31 146 3.34
 132  0.734  0.660  0.841- 282 1.90 222 1.94 204 1.96 207 2.00  57 3.01  54 3.07 129 3.10 147 3.11
                            72 3.13 135 3.18  53 3.19  71 3.20 117 3.32  56 3.32 150 3.34
 133  0.735  0.865  0.161- 205 1.94 223 1.96 208 1.99 283 2.04 115 3.07  60 3.14 130 3.19  75 3.19
                           118 3.21  55 3.21 148 3.21 136 3.23 121 3.28  57 3.29  73 3.29  58 3.35
 134  0.731  0.860  0.500- 206 1.97 284 1.98 209 1.98 224 2.01  55 3.12 131 3.16 116 3.18  74 3.18
                           119 3.21  59 3.23  56 3.24 149 3.27 137 3.28 122 3.29  58 3.30  73 3.31
 135  0.736  0.858  0.828- 225 1.91 207 1.96 285 2.03 210 2.05 150 3.07  74 3.15 117 3.15  57 3.16
                            59 3.18 132 3.18  56 3.18  75 3.19 138 3.25
 136  0.936  0.065  0.160- 223 1.96 211 1.97 151 1.98 286 2.06  63 3.17 139 3.19  79 3.19  75 3.20
                            73 3.21 148 3.21  76 3.22 133 3.23   3 3.24 121 3.28   1 3.32
 137  0.933  0.065  0.496- 212 1.95 224 1.98 287 2.00 152 2.01  73 3.13   2 3.15   1 3.17  61 3.17
                           140 3.20 122 3.22  74 3.24  77 3.25 134 3.28 149 3.28  80 3.29  62 3.32
 138  0.933  0.064  0.824- 225 1.93 153 1.95 213 1.95 288 2.05 150 3.06  62 3.07  74 3.14   2 3.18
                            81 3.18  78 3.23 123 3.24 135 3.25  75 3.26   3 3.29  63 3.36
 139  0.928  0.258  0.171- 214 1.91 211 1.94 289 1.97 154 2.01 121 3.08  61 3.11  64 3.16  66 3.17
                           136 3.19   4 3.20  63 3.22   6 3.23  79 3.25 124 3.26  82 3.28 142 3.29
 140  0.930  0.262  0.503- 212 1.94 155 1.95 215 1.96 290 2.00  65 3.13  61 3.14 122 3.16  62 3.18
                           137 3.20   5 3.23   4 3.23 143 3.24  80 3.25 125 3.26  83 3.29  64 3.30
 141  0.934  0.273  0.838- 216 1.96 291 1.97 156 1.99 213 2.03 144 3.11  81 3.13 126 3.15   6 3.20
                            66 3.21  84 3.21  63 3.23  62 3.27  65 3.27 123 3.29   5 3.31
 142  0.932  0.465  0.170- 292 1.93 157 1.94 217 1.97 214 2.05  64 3.12 145 3.16  66 3.17 127 3.17
                            69 3.19  82 3.20 124 3.20  85 3.22   7 3.25  67 3.26 139 3.29   9 3.32
 143  0.929  0.463  0.501- 293 1.94 218 1.96 215 2.01 158 2.02  68 3.07  65 3.12   7 3.14  67 3.17
                           125 3.19  64 3.24 140 3.24 146 3.24  86 3.27  83 3.28 128 3.29   8 3.31
 144  0.938  0.468  0.836- 159 1.96 219 1.99 294 2.00 216 2.00  87 3.11 141 3.11  84 3.19   9 3.20
                           147 3.22 129 3.25   8 3.26  69 3.26  65 3.31  68 3.32  66 3.33
 145  0.936  0.663  0.170- 217 1.94 295 1.95 160 1.99 220 2.02  10 3.09  70 3.16  69 3.16 142 3.16
                           127 3.18  85 3.19  12 3.22  88 3.23 148 3.26  72 3.26  67 3.29 130 3.30
 146  0.938  0.669  0.500- 161 1.95 296 1.97 221 2.00 218 2.01 149 3.14  86 3.15  70 3.18  11 3.18
                            68 3.18  89 3.21 143 3.24  10 3.25  67 3.25  71 3.26 128 3.28 131 3.34
 147  0.929  0.663  0.828- 222 1.93 219 1.96 162 1.98 297 1.99  71 3.08 132 3.11 129 3.11  87 3.17
                           144 3.22  11 3.22  68 3.24  72 3.27  12 3.27  69 3.31  90 3.34 150 3.35
 148  0.933  0.864  0.173- 220 1.95 298 1.95 163 1.97 223 1.99  70 3.14  73 3.15  13 3.18  15 3.19
                           136 3.21 133 3.21 130 3.22 145 3.26  88 3.26  72 3.27  76 3.27
 149  0.935  0.862  0.499- 221 1.93 164 2.01 224 2.01 299 2.05 146 3.14  89 3.19  70 3.19  74 3.21
                            13 3.21 134 3.27 131 3.28 137 3.28  73 3.30  71 3.32  77 3.33  14 3.34
 150  0.934  0.874  0.830- 165 1.92 225 1.96 300 1.97 222 2.07 138 3.06 135 3.07  14 3.08  75 3.13
                            74 3.15  78 3.25  15 3.28  90 3.29  71 3.30 132 3.34 147 3.35  72 3.36
 151  0.073  0.134  0.124-  79 1.94  76 1.98 136 1.98   3 2.06
 152  0.071  0.136  0.460-  77 1.95   1 1.97  80 1.97 137 2.01
 153  0.067  0.133  0.787- 138 1.95  78 1.97  81 1.97   2 2.02
 154  0.065  0.328  0.131-  79 1.90  82 1.98   6 1.98 139 2.01
 155  0.061  0.332  0.461- 140 1.95  83 1.96   4 1.98  80 1.99
 156  0.066  0.338  0.789-  81 1.93   5 1.94  84 1.96 141 1.99
 157  0.063  0.530  0.126-  85 1.94 142 1.94  82 1.97   9 2.00
 158  0.067  0.534  0.462-   7 1.90  86 1.93  83 1.98 143 2.02
 159  0.070  0.533  0.793-  87 1.92  84 1.93 144 1.96   8 1.97
 160  0.068  0.729  0.122-  12 1.93  85 1.94 145 1.99  88 2.01
 161  0.069  0.737  0.458-  89 1.94 146 1.95  86 1.97  10 2.03
 162  0.063  0.737  0.789-  11 1.95  87 1.97 147 1.98  90 2.06
 163  0.066  0.930  0.131- 148 1.97  88 1.97  15 1.98  76 2.02
 164  0.072  0.937  0.460-  89 1.95  13 2.00  77 2.00 149 2.01
 165  0.068  0.936  0.802- 150 1.92  78 1.98  14 1.99  90 2.00
 166  0.266  0.137  0.129-  76 1.92  18 1.93  94 1.96  91 1.99
 167  0.268  0.138  0.463-  16 1.91  77 1.92  95 2.00  92 2.01
 168  0.276  0.140  0.792-  96 1.91  17 1.97  93 1.97  78 2.03
 169  0.268  0.339  0.124-  97 1.90  94 1.97  79 1.99  21 2.02
 170  0.265  0.341  0.455-  80 1.93  98 1.95  95 1.95  19 1.98
 171  0.263  0.326  0.794-  99 1.96  20 1.96  81 2.00  96 2.00
 172  0.262  0.534  0.122-  24 1.94  82 1.97  97 2.04 100 2.05
 173  0.261  0.535  0.459-  83 1.87 101 1.96  98 1.99  22 2.08
 174  0.274  0.531  0.801- 102 1.95  23 1.97  99 1.98  84 1.99
 175  0.266  0.734  0.126-  85 1.93 100 1.95 103 1.97  27 2.00
 176  0.269  0.735  0.458- 101 1.92 104 1.96  25 1.97  86 2.00
 177  0.260  0.724  0.793-  87 1.92  26 1.96 102 1.99 105 1.99
 178  0.273  0.936  0.134- 103 1.91  91 1.96  30 1.97  88 1.99
 179  0.274  0.936  0.460-  92 1.96 104 1.96  89 2.01  28 2.02
 180  0.261  0.930  0.793-  90 1.94  93 1.95 105 1.99  29 2.03
 181  0.464  0.138  0.117-  91 1.97 109 2.00  33 2.04 106 2.06
 182  0.463  0.141  0.459-  31 1.96  92 1.97 110 1.98 107 2.09
 183  0.467  0.127  0.787- 108 1.94 111 1.96  32 2.00  93 2.01
 184  0.469  0.341  0.121- 109 1.89 112 1.99  94 2.01  36 2.02
 185  0.459  0.343  0.455- 110 1.94  95 1.95  34 1.97 113 1.97
 186  0.467  0.327  0.788-  35 1.89 114 1.96  96 1.97 111 2.04
 187  0.467  0.542  0.122-  97 1.96 112 1.98  39 1.98 115 1.99
 188  0.459  0.540  0.458- 116 1.91 113 1.92  37 1.94  98 2.00
 189  0.471  0.533  0.793-  38 1.91 114 1.97  99 2.02 117 2.02
 190  0.470  0.737  0.124- 100 1.91 115 1.92 118 1.97  42 1.98
 191  0.468  0.738  0.457- 116 1.90 119 1.93 101 1.96  40 2.00
 192  0.464  0.733  0.793- 117 1.96 102 1.99 120 2.00  41 2.04
 193  0.472  0.938  0.123-  45 1.97 118 1.97 103 1.97 106 1.97
 194  0.473  0.938  0.461- 119 1.93 107 1.96  43 1.98 104 1.99
 195  0.463  0.934  0.790- 120 1.93 108 1.99 105 2.00  44 2.04
 196  0.662  0.134  0.133- 106 1.91  48 1.97 124 1.98 121 2.00
 197  0.668  0.135  0.456- 107 1.87 125 1.96 122 2.00  46 2.05
 198  0.670  0.129  0.783- 123 1.92 108 1.93 126 1.94  47 2.00
 199  0.671  0.341  0.121- 127 1.91  51 1.98 124 2.01 109 2.07
 200  0.666  0.338  0.458-  49 1.93 128 1.98 125 1.99 110 2.09
 201  0.672  0.332  0.793- 111 1.92  50 1.97 126 2.00 129 2.01
 202  0.669  0.532  0.125- 130 1.95 112 1.95 127 1.96  54 2.01
 203  0.660  0.530  0.455-  52 1.93 128 1.94 131 1.97 113 1.99
 204  0.659  0.529  0.797-  53 1.95 132 1.96 129 2.01 114 2.03
 205  0.675  0.735  0.119- 130 1.88 133 1.94 115 1.99  57 2.01
 206  0.662  0.727  0.459- 131 1.90 134 1.97 116 1.98  55 2.01
 207  0.663  0.722  0.794- 117 1.92 135 1.96 132 2.00  56 2.03
 208  0.667  0.934  0.124- 118 1.89  60 1.94 133 1.99 121 2.02
 209  0.666  0.930  0.460- 119 1.91 134 1.98 122 1.99  58 2.00
 210  0.665  0.929  0.795- 123 1.99  59 2.00 135 2.05 120 2.06
 211  0.865  0.129  0.125- 139 1.94 121 1.96  63 1.96 136 1.97
 212  0.867  0.132  0.458-  61 1.92 140 1.94 137 1.95 122 1.97
 213  0.868  0.135  0.796- 138 1.95 123 1.96  62 1.99 141 2.03
 214  0.865  0.325  0.131- 139 1.91  66 1.93 124 1.99 142 2.05
 215  0.864  0.328  0.459- 140 1.96 125 1.98 143 2.01  64 2.02
 216  0.865  0.334  0.791- 141 1.96 126 2.00 144 2.00  65 2.02
 217  0.867  0.532  0.128- 127 1.92 145 1.94  69 1.94 142 1.97
 218  0.863  0.530  0.464- 143 1.96  67 1.97 128 1.97 146 2.01
 219  0.866  0.529  0.790- 129 1.93 147 1.96 144 1.99  68 2.05
 220  0.870  0.734  0.127- 148 1.95  72 1.98 130 1.99 145 2.02
 221  0.864  0.731  0.461- 149 1.93 131 1.98 146 2.00  70 2.01
 222  0.863  0.731  0.796- 147 1.93 132 1.94  71 1.98 150 2.07
 223  0.868  0.930  0.123- 133 1.96 136 1.96 148 1.99  75 2.02
 224  0.866  0.930  0.458- 137 1.98  73 2.00 134 2.01 149 2.01
 225  0.863  0.933  0.784-  74 1.89 135 1.91 138 1.93 150 1.96
 226  0.134  0.065  0.297-  16 1.95   1 1.96  76 1.98  13 2.04
 227  0.135  0.061  0.632-   2 1.94  14 1.97  17 1.98  77 2.03
 228  0.138  0.065  0.958-   3 1.95  18 1.95  78 1.95  15 2.03
 229  0.128  0.266  0.289-  19 1.93   4 1.94  79 1.97   1 1.97
 230  0.134  0.264  0.622-   5 1.94  80 1.96   2 1.99  20 2.05
 231  0.134  0.266  0.956-  21 1.93   3 1.95   6 1.99  81 2.00
 232  0.127  0.467  0.292-  22 1.96  82 1.97   7 2.00   4 2.02
 233  0.144  0.467  0.627-  23 1.95   5 1.99   8 2.00  83 2.02
 234  0.138  0.463  0.960-  24 1.95   9 1.96  84 1.98   6 2.00
 235  0.133  0.663  0.294-  10 1.92   7 1.94  25 1.98  85 2.08
 236  0.136  0.666  0.626-  26 1.93   8 1.96  11 1.99  86 2.03
 237  0.133  0.664  0.957-  27 1.97   9 1.98  12 2.00  87 2.09
 238  0.137  0.864  0.291-  13 1.90  88 1.95  10 1.98  28 2.02
 239  0.136  0.869  0.622-  29 1.95  89 1.95  14 1.95  11 1.99
 240  0.138  0.866  0.969-  90 1.91  12 1.97  30 2.00  15 2.03
 241  0.331  0.073  0.295-  31 1.97  28 1.99  91 1.99  16 2.08
 242  0.332  0.066  0.633-  17 1.97  29 1.97  32 1.97  92 2.00
 243  0.330  0.062  0.959-  33 1.96  30 1.98  18 1.99  93 2.01
 244  0.326  0.275  0.288-  19 1.92  34 1.94  94 1.94  16 2.00
 245  0.331  0.271  0.622-  20 1.86  95 1.92  17 1.96  35 1.98
 246  0.333  0.263  0.963-  36 1.92  96 1.95  21 1.95  18 1.95
 247  0.331  0.478  0.290-  22 1.90  97 2.01  37 2.03  19 2.04
 248  0.334  0.463  0.626-  98 1.89  23 1.91  20 1.94  38 1.96
 249  0.337  0.459  0.960-  39 1.91  21 1.91  99 1.93  24 1.96
 250  0.336  0.677  0.286-  25 1.96 100 1.97  40 1.99  22 2.02
 251  0.336  0.659  0.624-  26 1.96  41 1.97  23 2.03 101 2.03
 252  0.334  0.660  0.964- 102 1.95  24 1.96  27 1.97  42 1.99
 253  0.337  0.871  0.291-  28 1.91  43 1.93  25 1.94 103 1.99
 254  0.335  0.861  0.629-  44 1.91  29 1.98 104 2.01  26 2.06
 255  0.337  0.863  0.958-  45 1.95  27 1.99  30 2.00 105 2.00
 256  0.532  0.073  0.293-  46 1.94 106 1.96  43 1.98  31 2.00
 257  0.535  0.066  0.616- 107 1.93  32 1.97  44 2.02  47 2.03
 258  0.536  0.069  0.954-  33 1.93 108 1.98  48 2.01  45 2.04
 259  0.528  0.277  0.290-  31 2.00  49 2.02  34 2.02 109 2.04
 260  0.534  0.271  0.622- 110 1.99  32 2.00  50 2.00  35 2.07
 261  0.536  0.266  0.951-  33 1.94 111 1.97  51 1.98  36 2.01
 262  0.528  0.482  0.290-  52 1.93  37 1.96 112 2.02  34 2.03
 263  0.533  0.472  0.623-  53 1.93  38 1.93  35 1.99 113 2.00
 264  0.531  0.465  0.961- 114 1.89  36 1.92  39 1.94  54 1.97
 265  0.537  0.684  0.288-  40 1.86  55 1.94 115 1.97  37 2.00
 266  0.533  0.663  0.621-  41 1.93 116 1.95  56 1.96  38 2.02
 267  0.534  0.663  0.959-  39 1.89  57 1.94  42 1.96 117 1.97
 268  0.533  0.877  0.292-  58 1.94  43 1.95  40 2.00 118 2.02
 269  0.534  0.861  0.626-  41 1.93  59 1.95  44 1.97 119 2.03
 270  0.534  0.864  0.960-  42 1.90  60 1.93  45 1.96 120 1.96
 271  0.738  0.069  0.294-  61 1.92 121 1.94  58 1.95  46 1.97
 272  0.737  0.062  0.624-  47 1.94  62 1.96 122 1.97  59 2.00
 273  0.729  0.064  0.964-  60 1.95  63 1.98  48 1.99 123 2.08
 274  0.728  0.268  0.293- 124 1.89  46 1.96  49 2.01  64 2.02
 275  0.730  0.267  0.626-  47 1.96  50 1.97 125 1.98  65 2.01
 276  0.733  0.266  0.960-  48 1.97  51 1.97 126 1.99  66 1.99
 277  0.726  0.474  0.293-  67 1.96  49 1.98 127 1.98  52 2.04
 278  0.731  0.470  0.630-  50 1.94  68 1.95 128 1.99  53 1.99
 279  0.737  0.469  0.958-  51 1.91  54 1.91 129 1.96  69 1.98
 280  0.732  0.674  0.289-  52 1.93  55 1.97 130 2.03  70 2.07
 281  0.731  0.660  0.624-  56 1.90  71 1.90  53 1.95 131 1.99
 282  0.737  0.660  0.962- 132 1.90  72 1.92  54 1.93  57 1.95
 283  0.735  0.875  0.290-  58 1.98  55 1.98  73 2.01 133 2.04
 284  0.730  0.857  0.626- 134 1.98  74 1.98  56 1.98  59 1.99
 285  0.729  0.859  0.956-  57 1.92  75 2.00  60 2.01 135 2.03
 286  0.937  0.072  0.291-  73 1.95   1 1.97  61 2.02 136 2.06
 287  0.931  0.062  0.623-  74 1.95   2 1.96 137 2.00  62 2.03
 288  0.936  0.065  0.954-  75 1.97   3 1.99 138 2.05  63 2.05
 289  0.934  0.271  0.295-  64 1.91   4 1.91 139 1.97  61 1.98
 290  0.936  0.265  0.630-  62 1.93   5 1.96  65 1.96 140 2.00
 291  0.934  0.266  0.963-   6 1.95 141 1.97  63 1.97  66 1.98
 292  0.927  0.465  0.292- 142 1.93  64 1.93  67 1.96   7 2.03
 293  0.939  0.467  0.625- 143 1.94  68 1.95  65 1.97   8 2.01
 294  0.932  0.462  0.962-  66 1.99  69 2.00 144 2.00   9 2.06
 295  0.928  0.658  0.294-  70 1.92 145 1.95  10 2.00  67 2.00
 296  0.933  0.664  0.625-  68 1.96 146 1.97  71 2.00  11 2.00
 297  0.932  0.663  0.954-  12 1.94  69 1.97  72 1.99 147 1.99
 298  0.935  0.865  0.297- 148 1.95  70 1.96  13 1.98  73 2.00
 299  0.933  0.861  0.630-  74 1.97  14 2.03  71 2.05 149 2.05
 300  0.930  0.863  0.955-  75 1.96 150 1.97  72 1.98  15 1.99
 

IMPORTANT INFORMATION: All symmetrisations will be switched off!
NOSYMM: (Re-)initialisation of all symmetry stuff for point group C_1.


----------------------------------------------------------------------------------------

                                     Primitive cell                                     

  volume of cell :    3530.6290

  direct lattice vectors                    reciprocal lattice vectors
     8.048296539-13.940070096 -0.000000315     0.062124963 -0.035867817  0.000000002
     8.048290667 13.940066705 -0.000000225     0.062124978  0.035867843  0.000000002
    -0.000000527  0.000000049 15.734515530     0.000000002 -0.000000000  0.063554547

  length of vectors
    16.096603103 16.096597231 15.734515530     0.071735704  0.071735730  0.063554547

  position of ions in fractional coordinates (direct lattice)
     0.069258800  0.134621144  0.335137016
     0.065414765  0.127083990  0.658886863
     0.072057398  0.132758040  0.993117185
     0.063655652  0.330457142  0.334779792
     0.070299484  0.330963787  0.665916969
     0.064992626  0.329232116  0.004825707
     0.062483638  0.534880286  0.340739509
     0.074818316  0.533339016  0.667697474
     0.073327712  0.531406472  0.999802642
     0.066558462  0.728791086  0.328617978
     0.069529789  0.734670894  0.665581906
     0.062203041  0.729177867  0.998897028
     0.070281980  0.925065795  0.334062229
     0.068917860  0.928578668  0.675521356
     0.061602127  0.929590811  0.004583807
     0.263910400  0.145187464  0.342157592
     0.271279292  0.140706835  0.667202567
     0.266787188  0.131171145  0.006737983
     0.259474686  0.338715385  0.328496154
     0.270821576  0.332845395  0.669689115
     0.263881536  0.328685013  0.996372093
     0.262036693  0.539393048  0.326842864
     0.271530477  0.525627193  0.676370964
     0.270381639  0.525518546  0.999787840
     0.268293690  0.739971312  0.332690343
     0.265356371  0.720189725  0.668874488
     0.266032847  0.728243150  0.999037345
     0.273947848  0.937165090  0.331912795
     0.267232414  0.929772083  0.664465019
     0.274207100  0.932463251  0.008697527
     0.465152326  0.142517933  0.334384069
     0.470707574  0.133811402  0.659865740
     0.466863309  0.133036013  0.987919156
     0.457055633  0.343765880  0.329684061
     0.463155718  0.338543875  0.669080843
     0.466561002  0.331870191  0.993527595
     0.466758741  0.551467695  0.335282876
     0.464694616  0.530736770  0.672064887
     0.467338344  0.534051472  0.996872963
     0.469505038  0.740425198  0.330545843
     0.469501453  0.729740675  0.663271357
     0.471616294  0.734447738  0.998125468
     0.465585331  0.939373067  0.335435153
     0.466997573  0.929940062  0.660980856
     0.468800998  0.931932385  0.998024208
     0.665071571  0.132826772  0.326078611
     0.672959774  0.131837689  0.656399284
     0.666818169  0.135397480  0.008182971
     0.663428883  0.339512606  0.334725416
     0.667680284  0.337760217  0.668012355
     0.669463801  0.338560945  0.994717370
     0.657889523  0.545036958  0.332774456
     0.659383634  0.532074241  0.673472849
     0.666500252  0.528177287  0.997281274
     0.666987857  0.741344354  0.332492584
     0.664673824  0.721695547  0.665270143
     0.668198222  0.726973069  0.991593700
     0.664703742  0.937341027  0.332853322
     0.665791641  0.927629679  0.668425040
     0.664742853  0.929818796  0.000543086
     0.866575076  0.136981522  0.336222807
     0.867734055  0.134624213  0.670167955
     0.865185869  0.131255421  0.000097942
     0.866022785  0.333546285  0.330674510
     0.868012438  0.332940731  0.662810406
     0.864778762  0.329593571  0.008263066
     0.855686960  0.523590358  0.338859499
     0.866608156  0.528646084  0.660316534
     0.868897202  0.534215098  0.004711083
     0.870934997  0.730605884  0.333409804
     0.857479448  0.721572305  0.669794581
     0.867796607  0.731304565  0.001372884
     0.871748034  0.939868776  0.331277407
     0.865175480  0.929738509  0.663337984
     0.865515248  0.931851347  0.994398440
     0.137132936  0.067005438  0.171887358
     0.138211346  0.072130593  0.503671884
     0.138217304  0.073454395  0.834394384
     0.132895432  0.265029885  0.164676175
     0.135909473  0.271094264  0.497903629
     0.125606857  0.266280365  0.828778067
     0.130449415  0.464087654  0.167383863
     0.134697266  0.465826825  0.498777813
     0.136996644  0.469188947  0.834168724
     0.133913495  0.663278304  0.162145225
     0.132404093  0.666506369  0.497025305
     0.126923920  0.665140023  0.824074495
     0.135428849  0.863833013  0.166716476
     0.136155870  0.868472356  0.498373987
     0.135533224  0.869259753  0.847326525
     0.335799592  0.070393348  0.169279348
     0.332064705  0.066284807  0.505503733
     0.331854632  0.062587481  0.831496158
     0.333595708  0.271057173  0.165020102
     0.329067267  0.275143600  0.500133622
     0.337746351  0.266268740  0.839521689
     0.334808554  0.467844877  0.162810460
     0.326879063  0.468072799  0.506600458
     0.336108982  0.456741412  0.837739507
     0.339884361  0.674087705  0.161058532
     0.333927000  0.668976543  0.495374029
     0.331629240  0.663365865  0.840365754
     0.338727987  0.868775875  0.164234671
     0.337186658  0.866403301  0.501356235
     0.327382442  0.860379089  0.830845150
     0.530842562  0.069330194  0.168447384
     0.540697903  0.074066908  0.492903494
     0.541346109  0.069734460  0.828028930
     0.529609875  0.273582054  0.159850589
     0.522980916  0.276500694  0.496026433
     0.539242037  0.259800899  0.826318262
     0.536360886  0.476650879  0.161592130
     0.526786011  0.476626096  0.496884255
     0.522086234  0.454185763  0.840864175
     0.541303129  0.677363682  0.163040990
     0.527226851  0.669711533  0.497436960
     0.533536895  0.669831911  0.834663948
     0.538428831  0.870802543  0.163580682
     0.535731021  0.869069479  0.497105780
     0.525186099  0.867634916  0.836185939
     0.734662332  0.068883637  0.169988871
     0.733123129  0.065767414  0.499166732
     0.733359277  0.066002077  0.832659867
     0.730666865  0.268517333  0.172443629
     0.729307487  0.267011503  0.499699441
     0.730900512  0.255604975  0.834372019
     0.736165125  0.466795632  0.167748097
     0.728985243  0.470596378  0.503377098
     0.736668347  0.468569787  0.833378435
     0.732422337  0.665876149  0.160301831
     0.727477139  0.662553573  0.497439029
     0.734429051  0.660025624  0.841115916
     0.734658790  0.865173251  0.160910301
     0.730697224  0.860282434  0.500216386
     0.736160894  0.857905269  0.827680126
     0.936349491  0.064757988  0.160196241
     0.933147471  0.065275069  0.496401059
     0.933314178  0.063778394  0.823683233
     0.928064746  0.258409160  0.170740610
     0.929522460  0.261980809  0.502518439
     0.934494140  0.272970985  0.837871078
     0.932220427  0.464819818  0.169878500
     0.929479850  0.463200114  0.501404064
     0.938356366  0.468323791  0.835662873
     0.935516497  0.663064357  0.170108644
     0.937711938  0.668598896  0.500352805
     0.928778966  0.663073909  0.828097756
     0.933243767  0.864201780  0.172680633
     0.934950166  0.862227861  0.499411348
     0.934240630  0.874160498  0.829842981
     0.072677541  0.133734727  0.124178936
     0.071170334  0.136418002  0.460168647
     0.066881093  0.132830396  0.787448064
     0.064943801  0.328241263  0.130956836
     0.060751159  0.332110586  0.460651401
     0.066291007  0.338046228  0.788994074
     0.062755375  0.530170324  0.126497942
     0.067005102  0.534000996  0.461628193
     0.069990548  0.532666489  0.792583742
     0.067701684  0.728874722  0.121681977
     0.069284173  0.737373507  0.457550110
     0.063293905  0.736760408  0.789048656
     0.066160732  0.930098471  0.130531099
     0.071755928  0.937188914  0.460328123
     0.068408547  0.936393373  0.801883277
     0.266184166  0.136521001  0.129475232
     0.268065030  0.138142661  0.463102816
     0.275719512  0.140320144  0.792191225
     0.267749739  0.338549022  0.124455743
     0.265079990  0.341407507  0.454552815
     0.263033329  0.325528601  0.794243527
     0.262359629  0.534336909  0.121990998
     0.260970781  0.534540893  0.458793085
     0.274306121  0.530633639  0.801405564
     0.265869474  0.734231904  0.125895365
     0.268708702  0.734683807  0.458032339
     0.260068582  0.723900181  0.792987259
     0.273243660  0.935666872  0.133723242
     0.273751780  0.935717702  0.460111603
     0.260510507  0.929832149  0.793215724
     0.464062699  0.138351918  0.117487957
     0.463142259  0.141403136  0.458985929
     0.467365154  0.126557349  0.787121742
     0.468738262  0.340972517  0.121407456
     0.458902323  0.343392243  0.454892810
     0.466909379  0.327183260  0.788390074
     0.467352198  0.542284358  0.122222381
     0.459306954  0.540017611  0.458232626
     0.471299855  0.532801170  0.793090386
     0.470109632  0.736590985  0.124077237
     0.467524892  0.738145952  0.457358369
     0.464002830  0.732754271  0.792549298
     0.472093546  0.937877026  0.122820585
     0.472535457  0.938113982  0.461033253
     0.463261461  0.934145068  0.790292493
     0.661932363  0.133654170  0.133223904
     0.667894939  0.135495184  0.456212725
     0.670230938  0.129003934  0.783486695
     0.670990805  0.340616006  0.120619680
     0.665925281  0.338362895  0.457512154
     0.671563857  0.331970197  0.793139453
     0.669260529  0.532130923  0.124979941
     0.660407457  0.529940124  0.454538417
     0.658771612  0.528509809  0.797434647
     0.674785044  0.734532675  0.118894645
     0.662204141  0.726794064  0.459484626
     0.663143209  0.722402694  0.794383815
     0.666767154  0.933541061  0.124026042
     0.665568061  0.929891296  0.459523096
     0.665025204  0.929476244  0.795294661
     0.865270507  0.128993473  0.124654580
     0.866997618  0.132349117  0.458446852
     0.868064990  0.135114932  0.796438838
     0.864630055  0.324601560  0.130563179
     0.863623792  0.327583187  0.458751501
     0.865045561  0.333998465  0.791449427
     0.866716546  0.532368740  0.127968487
     0.862591528  0.530492021  0.463593023
     0.866441945  0.529465904  0.790377195
     0.870402705  0.734157306  0.127028489
     0.863578717  0.730914653  0.460657382
     0.863249112  0.730872814  0.795644956
     0.868233773  0.930452106  0.123034480
     0.866428193  0.930201821  0.457969562
     0.863124669  0.933343983  0.783509223
     0.134306531  0.065374310  0.297484891
     0.135294230  0.061382190  0.632055990
     0.138439275  0.065272693  0.958077086
     0.128415372  0.266120673  0.289485483
     0.133826698  0.264019389  0.622347103
     0.133541248  0.266302261  0.955746986
     0.126891493  0.466912990  0.292488573
     0.143518218  0.466577319  0.626611073
     0.137754462  0.462930165  0.959728149
     0.133097049  0.663399693  0.294408784
     0.135922478  0.665927787  0.625832352
     0.132637240  0.664435622  0.956926696
     0.136799799  0.863995516  0.290901589
     0.135644507  0.868575230  0.622481396
     0.137811795  0.866061712  0.968869628
     0.331173045  0.073116293  0.295464854
     0.332388500  0.066446667  0.632883446
     0.330464987  0.062381593  0.958926436
     0.326160725  0.275141685  0.288006195
     0.331478255  0.271167377  0.621854208
     0.332769188  0.262585964  0.963360008
     0.330560003  0.478114614  0.289908498
     0.333699826  0.462741374  0.626218344
     0.337444918  0.459384612  0.960238035
     0.335711758  0.676892180  0.286402938
     0.335542089  0.658974466  0.624194405
     0.333998124  0.660375439  0.964047682
     0.336874490  0.871003678  0.290819195
     0.334779734  0.861224484  0.629147138
     0.336526819  0.863233721  0.957931041
     0.531663855  0.073073699  0.292843183
     0.534782187  0.065652228  0.615602871
     0.536408205  0.069266398  0.954021029
     0.528130673  0.276934518  0.289552884
     0.533738520  0.270747674  0.621603244
     0.536290540  0.265599632  0.951436603
     0.528417988  0.482437721  0.289691343
     0.532916973  0.471713414  0.623316218
     0.531159593  0.464551282  0.960744000
     0.537353322  0.684193004  0.288031350
     0.533364995  0.663370992  0.620990705
     0.533650869  0.663150763  0.959364971
     0.533348259  0.876632494  0.291746450
     0.534423828  0.861433341  0.626159089
     0.534124812  0.863651630  0.960091339
     0.737886611  0.069446267  0.293511981
     0.737456249  0.062025957  0.624131474
     0.729038993  0.063679448  0.964484479
     0.727534729  0.267812911  0.292627951
     0.730264941  0.267210365  0.625692416
     0.732699996  0.265895253  0.960354224
     0.726025045  0.473652075  0.292908205
     0.731167457  0.470190176  0.629543948
     0.737126045  0.469150477  0.957636655
     0.731776865  0.673821089  0.289330170
     0.731320818  0.660230570  0.623727849
     0.737353487  0.660492385  0.961933782
     0.735492584  0.874900586  0.290048959
     0.729593164  0.856873802  0.625942312
     0.728919285  0.858570531  0.956164033
     0.937440361  0.072355284  0.291015987
     0.930825747  0.061933922  0.623214693
     0.936141573  0.065114108  0.953688880
     0.934254524  0.270999390  0.295418202
     0.936103457  0.265479724  0.629740203
     0.933515613  0.265992601  0.962728373
     0.927388368  0.465321263  0.292319571
     0.939068639  0.467149234  0.624504382
     0.932019994  0.462468215  0.962434880
     0.928401867  0.657856811  0.293703712
     0.933355387  0.663540586  0.625468652
     0.932106387  0.663298325  0.954475736
     0.934576551  0.864556592  0.296721284
     0.932924332  0.861059289  0.629572407
     0.930355860  0.863046098  0.954789193

  ion indices of the primitive-cell ions
   primitive index   ion index
                 1           1
                 2           2
                 3           3
                 4           4
                 5           5
                 6           6
                 7           7
                 8           8
                 9           9
                10          10
                11          11
                12          12
                13          13
                14          14
                15          15
                16          16
                17          17
                18          18
                19          19
                20          20
                21          21
                22          22
                23          23
                24          24
                25          25
                26          26
                27          27
                28          28
                29          29
                30          30
                31          31
                32          32
                33          33
                34          34
                35          35
                36          36
                37          37
                38          38
                39          39
                40          40
                41          41
                42          42
                43          43
                44          44
                45          45
                46          46
                47          47
                48          48
                49          49
                50          50
                51          51
                52          52
                53          53
                54          54
                55          55
                56          56
                57          57
                58          58
                59          59
                60          60
                61          61
                62          62
                63          63
                64          64
                65          65
                66          66
                67          67
                68          68
                69          69
                70          70
                71          71
                72          72
                73          73
                74          74
                75          75
                76          76
                77          77
                78          78
                79          79
                80          80
                81          81
                82          82
                83          83
                84          84
                85          85
                86          86
                87          87
                88          88
                89          89
                90          90
                91          91
                92          92
                93          93
                94          94
                95          95
                96          96
                97          97
                98          98
                99          99
               100         100
               101         101
               102         102
               103         103
               104         104
               105         105
               106         106
               107         107
               108         108
               109         109
               110         110
               111         111
               112         112
               113         113
               114         114
               115         115
               116         116
               117         117
               118         118
               119         119
               120         120
               121         121
               122         122
               123         123
               124         124
               125         125
               126         126
               127         127
               128         128
               129         129
               130         130
               131         131
               132         132
               133         133
               134         134
               135         135
               136         136
               137         137
               138         138
               139         139
               140         140
               141         141
               142         142
               143         143
               144         144
               145         145
               146         146
               147         147
               148         148
               149         149
               150         150
               151         151
               152         152
               153         153
               154         154
               155         155
               156         156
               157         157
               158         158
               159         159
               160         160
               161         161
               162         162
               163         163
               164         164
               165         165
               166         166
               167         167
               168         168
               169         169
               170         170
               171         171
               172         172
               173         173
               174         174
               175         175
               176         176
               177         177
               178         178
               179         179
               180         180
               181         181
               182         182
               183         183
               184         184
               185         185
               186         186
               187         187
               188         188
               189         189
               190         190
               191         191
               192         192
               193         193
               194         194
               195         195
               196         196
               197         197
               198         198
               199         199
               200         200
               201         201
               202         202
               203         203
               204         204
               205         205
               206         206
               207         207
               208         208
               209         209
               210         210
               211         211
               212         212
               213         213
               214         214
               215         215
               216         216
               217         217
               218         218
               219         219
               220         220
               221         221
               222         222
               223         223
               224         224
               225         225
               226         226
               227         227
               228         228
               229         229
               230         230
               231         231
               232         232
               233         233
               234         234
               235         235
               236         236
               237         237
               238         238
               239         239
               240         240
               241         241
               242         242
               243         243
               244         244
               245         245
               246         246
               247         247
               248         248
               249         249
               250         250
               251         251
               252         252
               253         253
               254         254
               255         255
               256         256
               257         257
               258         258
               259         259
               260         260
               261         261
               262         262
               263         263
               264         264
               265         265
               266         266
               267         267
               268         268
               269         269
               270         270
               271         271
               272         272
               273         273
               274         274
               275         275
               276         276
               277         277
               278         278
               279         279
               280         280
               281         281
               282         282
               283         283
               284         284
               285         285
               286         286
               287         287
               288         288
               289         289
               290         290
               291         291
               292         292
               293         293
               294         294
               295         295
               296         296
               297         297
               298         298
               299         299
               300         300

----------------------------------------------------------------------------------------

 
 
 KPOINTS: Gamma-point only                        

Automatic generation of k-mesh.
 Grid dimensions read from file:
 generate k-points for:    1    1    1

 Generating k-lattice:

  Cartesian coordinates                     Fractional coordinates (reciprocal lattice)
     0.062124963 -0.035867817  0.000000002     1.000000000 -0.000000000 -0.000000000
     0.062124978  0.035867843  0.000000002     0.000000000  1.000000000 -0.000000000
     0.000000002 -0.000000000  0.063554547    -0.000000000 -0.000000000  1.000000000

  Length of vectors
     0.071735704  0.071735730  0.063554547

  Shift w.r.t. Gamma in fractional coordinates (k-lattice)
     0.000000000  0.000000000  0.000000000

 
 Subroutine IBZKPT returns following result:
 ===========================================
 
 Found      1 irreducible k-points:
 
 Following reciprocal coordinates:
            Coordinates               Weight
  0.000000  0.000000  0.000000      1.000000
 
 Following cartesian coordinates:
            Coordinates               Weight
  0.000000  0.000000  0.000000      1.000000
 


--------------------------------------------------------------------------------------------------------




 Dimension of arrays:
   k-points           NKPTS =      1   k-points in BZ     NKDIM =      1   number of bands    NBANDS=    844
   number of dos      NEDOS =    301   number of ions     NIONS =    300
   non local maximal  LDIM  =      5   non local SUM 2l+1 LMDIM =     13
   total plane-waves  NPLWV = ******
   max r-space proj   IRMAX =   7365   max aug-charges    IRDMAX=  25840
   dimension x,y,z NGX =   108 NGY =  108 NGZ =  108
   dimension x,y,z NGXF=   216 NGYF=  216 NGZF=  216
   support grid    NGXF=   216 NGYF=  216 NGZF=  216
   ions per type =             150 150
   NGX,Y,Z   is equivalent  to a cutoff of  11.15, 11.15, 11.41 a.u.
   NGXF,Y,Z  is equivalent  to a cutoff of  22.31, 22.31, 22.82 a.u.

 SYSTEM =  GaN 553 CGM                             
 POSCAR =  Ga150 N150                              

 Startparameter for this run:
   NWRITE =      0    write-flag & timer
   PREC   = accura    normal or accurate (medium, high low for compatibility)
   ISTART =      0    job   : 0-new  1-cont  2-samecut
   ICHARG =      2    charge: 1-file 2-atom 10-const
   ISPIN  =      2    spin polarized calculation?
   LNONCOLLINEAR =      F non collinear calculations
   LSORBIT =      F    spin-orbit coupling
   INIWAV =      1    electr: 0-lowe 1-rand  2-diag
   LASPH  =      T    aspherical Exc in radial PAW
 Electronic Relaxation 1
   ENCUT  =  400.0 eV  29.40 Ry    5.42 a.u.  26.25 26.25 25.66*2*pi/ulx,y,z
   ENINI  =  400.0     initial cutoff
   ENAUG  =  627.1 eV  augmentation charge cutoff
   NELM   =    100;   NELMIN=  2; NELMDL= -5     # of ELM steps 
   EDIFF  = 0.2E-03   stopping-criterion for ELM
   LREAL  =      T    real-space projection
   NLSPLINE    = F    spline interpolate recip. space projectors
   LCOMPAT=      F    compatible to vasp.4.4
   GGA_COMPAT  = T    GGA compatible to vasp.4.4-vasp.4.6
   LMAXPAW     = -100 max onsite density
   LMAXMIX     =    4 max onsite mixed and CHGCAR
   VOSKOWN=      0    Vosko Wilk Nusair interpolation
   ROPT   =   -0.00025  -0.00025
 Ionic relaxation
   EDIFFG = 0.2E-02   stopping-criterion for IOM
   NSW    =     90    number of steps for IOM
   NBLOCK =     10;   KBLOCK =      1    inner block; outer block 
   IBRION =      2    ionic relax: 0-MD 1-quasi-New 2-CG
   NFREE  =      1    steps in history (QN), initial steepest desc. (CG)
   ISIF   =      0    stress and relaxation
   IWAVPR =     11    prediction:  0-non 1-charg 2-wave 3-comb
   ISYM   =      0    0-nonsym 1-usesym 2-fastsym
   LCORR  =      T    Harris-Foulkes like correction to forces

   POTIM  = 0.5000    time-step for ionic-motion
   TEIN   =    0.0    initial temperature
   TEBEG  =    0.0;   TEEND  =   0.0 temperature during run
   SMASS  =  -3.00    Nose mass-parameter (am)
   estimated Nose-frequenzy (Omega)   =  0.10E-29 period in steps = 0.13E+47 mass=  -0.592E-26a.u.
   SCALEE = 1.0000    scale energy and forces
   NPACO  =    256;   APACO  = 10.0  distance and # of slots for P.C.
   PSTRESS=    0.0 pullay stress

  Mass of Ions in am
   POMASS =  69.72 14.00
  Ionic Valenz
   ZVAL   =   3.00  5.00
  Atomic Wigner-Seitz radii
   RWIGS  =  -1.00 -1.00
  virtual crystal weights 
   VCA    =   1.00  1.00
   NELECT =    1200.0000    total number of electrons
   NUPDOWN=      -1.0000    fix difference up-down

 DOS related values:
   EMIN   =  10.00;   EMAX   =-10.00  energy-range for DOS
   EFERMI =   0.00
   ISMEAR =     0;   SIGMA  =   0.05  broadening in eV -4-tet -1-fermi 0-gaus

 Electronic relaxation 2 (details)
   IALGO  =     68    algorithm
   LDIAG  =      T    sub-space diagonalisation (order eigenvalues)
   LSUBROT=      F    optimize rotation matrix (better conditioning)
   TURBO    =      0    0=normal 1=particle mesh
   IRESTART =      0    0=no restart 2=restart with 2 vectors
   NREBOOT  =      0    no. of reboots
   NMIN     =      0    reboot dimension
   EREF     =   0.00    reference energy to select bands
   IMIX   =      4    mixing-type and parameters
     AMIX     =   0.40;   BMIX     =  1.00
     AMIX_MAG =   1.60;   BMIX_MAG =  1.00
     AMIN     =   0.10
     WC   =   100.;   INIMIX=   1;  MIXPRE=   1;  MAXMIX= -45

 Intra band minimization:
   WEIMIN = 0.0010     energy-eigenvalue tresh-hold
   EBREAK =  0.59E-07  absolut break condition
   DEPER  =   0.30     relativ break condition  

   TIME   =   0.40     timestep for ELM

  volume/ion in A,a.u.               =      11.77        79.42
  Fermi-wavevector in a.u.,A,eV,Ry     =   1.142487  2.158987 17.759361  1.305276
  Thomas-Fermi vector in A             =   2.279185
 
 Write flags
   LWAVE        =      F    write WAVECAR
   LDOWNSAMPLE  =      F    k-point downsampling of WAVECAR
   LCHARG       =      T    write CHGCAR
   LVTOT        =      F    write LOCPOT, total local potential
   LVHAR        =      F    write LOCPOT, Hartree potential only
   LELF         =      F    write electronic localiz. function (ELF)
   LORBIT       =     11    0 simple, 1 ext, 2 COOP (PROOUT), +10 PAW based schemes


 Dipole corrections
   LMONO  =      F    monopole corrections only (constant potential shift)
   LDIPOL =      F    correct potential (dipole corrections)
   IDIPOL =      0    1-x, 2-y, 3-z, 4-all directions 
   EPSILON=  1.0000000 bulk dielectric constant

 Exchange correlation treatment:
   GGA     =    --    GGA type
   LEXCH   =     8    internal setting for exchange type
   LIBXC   =     F    Libxc                    
   VOSKOWN =     0    Vosko Wilk Nusair interpolation
   LHFCALC =     F    Hartree Fock is set to
   LHFONE  =     F    Hartree Fock one center treatment
   AEXX    =    0.0000 exact exchange contribution

 Linear response parameters
   LEPSILON=     F    determine dielectric tensor
   LRPA    =     F    only Hartree local field effects (RPA)
   LNABLA  =     F    use nabla operator in PAW spheres
   LVEL    =     F    velocity operator in full k-point grid
   CSHIFT  =0.1000    complex shift for real part using Kramers Kronig
   OMEGAMAX=  -1.0    maximum frequency
   DEG_THRESHOLD= 0.2000000E-02 threshold for treating states as degnerate
   RTIME   =   -0.100 relaxation time in fs
  (WPLASMAI=    0.000 imaginary part of plasma frequency in eV, 0.658/RTIME)
   DFIELD  = 0.0000000 0.0000000 0.0000000 field for delta impulse in time
 
  Optional k-point grid parameters
   LKPOINTS_OPT  =     F    use optional k-point grid
   KPOINTS_OPT_MODE=     1    mode for optional k-point grid
 
 Orbital magnetization related:
   ORBITALMAG=     F  switch on orbital magnetization
   LCHIMAG   =     F  perturbation theory with respect to B field
   DQ        =  0.001000  dq finite difference perturbation B field
   LLRAUG    =     F  two centre corrections for induced B field



--------------------------------------------------------------------------------------------------------


 conjugate gradient relaxation of ions
 charge density and potential will be updated during run
 spin polarized calculation
 RMM-DIIS sequential band-by-band and
  variant of blocked Davidson during initial phase
 perform sub-space diagonalisation
    before iterative eigenvector-optimisation
 modified Broyden-mixing scheme, WC =      100.0
 initial mixing is a Kerker type mixing with AMIX =  0.4000 and BMIX =      1.0000
 Hartree-type preconditioning will be used
 using additional bands          244
 real space projection scheme for non local part
 use partial core corrections
 calculate Harris-corrections to forces 
   (improved forces if not selfconsistent)
 use gradient corrections 
 use of overlap-Matrix (Vanderbilt PP)
 Gauss-broadening in eV      SIGMA  =   0.05


--------------------------------------------------------------------------------------------------------


  energy-cutoff  :      400.00
  volume of cell :     3530.63
      direct lattice vectors                 reciprocal lattice vectors
     8.048296539-13.940070096 -0.000000315     0.062124963 -0.035867817  0.000000002
     8.048290667 13.940066705 -0.000000225     0.062124978  0.035867843  0.000000002
    -0.000000527  0.000000049 15.734515530     0.000000002 -0.000000000  0.063554547

  length of vectors
    16.096603103 16.096597231 15.734515530     0.071735704  0.071735730  0.063554547


 
 k-points in units of 2pi/SCALE and weight: Gamma-point only                        
   0.00000000  0.00000000  0.00000000       1.000
 
 k-points in reciprocal lattice and weights: Gamma-point only                        
   0.00000000  0.00000000  0.00000000       1.000
 
 position of ions in fractional coordinates (direct lattice) 
   0.06925880  0.13462114  0.33513702
   0.06541477  0.12708399  0.65888686
   0.07205740  0.13275804  0.99311718
   0.06365565  0.33045714  0.33477979
   0.07029948  0.33096379  0.66591697
   0.06499263  0.32923212  0.00482571
   0.06248364  0.53488029  0.34073951
   0.07481832  0.53333902  0.66769747
   0.07332771  0.53140647  0.99980264
   0.06655846  0.72879109  0.32861798
   0.06952979  0.73467089  0.66558191
   0.06220304  0.72917787  0.99889703
   0.07028198  0.92506580  0.33406223
   0.06891786  0.92857867  0.67552136
   0.06160213  0.92959081  0.00458381
   0.26391040  0.14518746  0.34215759
   0.27127929  0.14070684  0.66720257
   0.26678719  0.13117115  0.00673798
   0.25947469  0.33871539  0.32849615
   0.27082158  0.33284540  0.66968911
   0.26388154  0.32868501  0.99637209
   0.26203669  0.53939305  0.32684286
   0.27153048  0.52562719  0.67637096
   0.27038164  0.52551855  0.99978784
   0.26829369  0.73997131  0.33269034
   0.26535637  0.72018972  0.66887449
   0.26603285  0.72824315  0.99903734
   0.27394785  0.93716509  0.33191280
   0.26723241  0.92977208  0.66446502
   0.27420710  0.93246325  0.00869753
   0.46515233  0.14251793  0.33438407
   0.47070757  0.13381140  0.65986574
   0.46686331  0.13303601  0.98791916
   0.45705563  0.34376588  0.32968406
   0.46315572  0.33854387  0.66908084
   0.46656100  0.33187019  0.99352760
   0.46675874  0.55146769  0.33528288
   0.46469462  0.53073677  0.67206489
   0.46733834  0.53405147  0.99687296
   0.46950504  0.74042520  0.33054584
   0.46950145  0.72974067  0.66327136
   0.47161629  0.73444774  0.99812547
   0.46558533  0.93937307  0.33543515
   0.46699757  0.92994006  0.66098086
   0.46880100  0.93193238  0.99802421
   0.66507157  0.13282677  0.32607861
   0.67295977  0.13183769  0.65639928
   0.66681817  0.13539748  0.00818297
   0.66342888  0.33951261  0.33472542
   0.66768028  0.33776022  0.66801235
   0.66946380  0.33856094  0.99471737
   0.65788952  0.54503696  0.33277446
   0.65938363  0.53207424  0.67347285
   0.66650025  0.52817729  0.99728127
   0.66698786  0.74134435  0.33249258
   0.66467382  0.72169555  0.66527014
[...]
  167        1.239   2.451   0.000   3.690
  168        1.239   2.451   0.000   3.690
  169        1.239   2.450   0.000   3.690
  170        1.239   2.450   0.000   3.690
  171        1.239   2.451   0.000   3.690
  172        1.239   2.450   0.000   3.690
  173        1.239   2.450   0.000   3.690
  174        1.239   2.450   0.000   3.690
  175        1.239   2.451   0.000   3.690
  176        1.239   2.450   0.000   3.690
  177        1.239   2.450   0.000   3.690
  178        1.239   2.451   0.000   3.690
  179        1.239   2.451   0.000   3.690
  180        1.239   2.451   0.000   3.690
  181        1.239   2.451   0.000   3.690
  182        1.239   2.451   0.000   3.690
  183        1.239   2.451   0.000   3.690
  184        1.239   2.450   0.000   3.690
  185        1.239   2.450   0.000   3.690
  186        1.239   2.451   0.000   3.690
  187        1.239   2.451   0.000   3.690
  188        1.239   2.450   0.000   3.690
  189        1.239   2.450   0.000   3.690
  190        1.239   2.451   0.000   3.690
  191        1.239   2.450   0.000   3.690
  192        1.239   2.450   0.000   3.690
  193        1.239   2.451   0.000   3.690
  194        1.239   2.451   0.000   3.690
  195        1.239   2.451   0.000   3.690
  196        1.239   2.451   0.000   3.690
  197        1.239   2.451   0.000   3.690
  198        1.239   2.451   0.000   3.690
  199        1.239   2.451   0.000   3.690
  200        1.239   2.450   0.000   3.690
  201        1.239   2.451   0.000   3.690
  202        1.239   2.450   0.000   3.690
  203        1.239   2.450   0.000   3.690
  204        1.239   2.451   0.000   3.690
  205        1.239   2.451   0.000   3.690
  206        1.239   2.450   0.000   3.690
  207        1.239   2.451   0.000   3.690
  208        1.239   2.451   0.000   3.690
  209        1.239   2.451   0.000   3.690
  210        1.239   2.450   0.000   3.690
  211        1.239   2.451   0.000   3.690
  212        1.239   2.451   0.000   3.690
  213        1.239   2.451   0.000   3.690
  214        1.239   2.450   0.000   3.690
  215        1.239   2.451   0.000   3.690
  216        1.239   2.450   0.000   3.690
  217        1.239   2.451   0.000   3.690
  218        1.239   2.451   0.000   3.690
  219        1.239   2.450   0.000   3.690
  220        1.239   2.450   0.000   3.690
  221        1.239   2.450   0.000   3.690
  222        1.239   2.451   0.000   3.690
  223        1.239   2.451   0.000   3.690
  224        1.239   2.451   0.000   3.690
  225        1.239   2.451   0.000   3.690
  226        1.239   2.450   0.000   3.690
  227        1.239   2.451   0.000   3.690
  228        1.239   2.451   0.000   3.690
  229        1.239   2.451   0.000   3.690
  230        1.239   2.451   0.000   3.690
  231        1.239   2.451   0.000   3.690
  232        1.239   2.451   0.000   3.690
  233        1.239   2.450   0.000   3.690
  234        1.239   2.451   0.000   3.690
  235        1.239   2.451   0.000   3.690
  236        1.239   2.450   0.000   3.690
  237        1.239   2.451   0.000   3.690
  238        1.239   2.451   0.000   3.690
  239        1.239   2.451   0.000   3.690
  240        1.239   2.451   0.000   3.690
  241        1.239   2.450   0.000   3.690
  242        1.239   2.451   0.000   3.690
  243        1.239   2.451   0.000   3.690
  244        1.239   2.451   0.000   3.690
  245        1.239   2.451   0.000   3.690
  246        1.239   2.451   0.000   3.690
  247        1.239   2.450   0.000   3.690
  248        1.239   2.450   0.000   3.690
  249        1.239   2.450   0.000   3.689
  250        1.239   2.450   0.000   3.690
  251        1.239   2.450   0.000   3.690
  252        1.239   2.450   0.000   3.690
  253        1.239   2.451   0.000   3.690
  254        1.239   2.451   0.000   3.690
  255        1.239   2.451   0.000   3.690
  256        1.239   2.451   0.000   3.690
  257        1.239   2.451   0.000   3.690
  258        1.239   2.451   0.000   3.690
  259        1.239   2.450   0.000   3.690
  260        1.239   2.450   0.000   3.690
  261        1.239   2.450   0.000   3.690
  262        1.239   2.450   0.000   3.690
  263        1.239   2.450   0.000   3.690
  264        1.239   2.451   0.000   3.690
  265        1.239   2.451   0.000   3.690
  266        1.239   2.451   0.000   3.690
  267        1.239   2.451   0.000   3.690
  268        1.239   2.450   0.000   3.690
  269        1.239   2.450   0.000   3.690
  270        1.239   2.450   0.000   3.690
  271        1.239   2.451   0.000   3.690
  272        1.239   2.451   0.000   3.690
  273        1.239   2.451   0.000   3.690
  274        1.239   2.451   0.000   3.690
  275        1.239   2.450   0.000   3.690
  276        1.239   2.451   0.000   3.690
  277        1.239   2.450   0.000   3.690
  278        1.239   2.450   0.000   3.690
  279        1.239   2.451   0.000   3.690
  280        1.239   2.450   0.000   3.690
  281        1.239   2.450   0.000   3.690
  282        1.239   2.451   0.000   3.690
  283        1.239   2.451   0.000   3.690
  284        1.239   2.451   0.000   3.690
  285        1.239   2.451   0.000   3.690
  286        1.239   2.451   0.000   3.690
  287        1.239   2.451   0.000   3.690
  288        1.239   2.451   0.000   3.690
  289        1.239   2.450   0.000   3.690
  290        1.239   2.451   0.000   3.690
  291        1.239   2.451   0.000   3.690
  292        1.239   2.450   0.000   3.690
  293        1.239   2.451   0.000   3.690
  294        1.239   2.451   0.000   3.690
  295        1.239   2.451   0.000   3.690
  296        1.239   2.450   0.000   3.690
  297        1.239   2.451   0.000   3.690
  298        1.239   2.451   0.000   3.690
  299        1.239   2.451   0.000   3.690
  300        1.239   2.451   0.000   3.690
--------------------------------------------------
tot        336.648 575.502  56.092 968.242



 magnetization (x)

# of ion       s       p       d       tot
------------------------------------------
    1       -0.000  -0.000   0.000  -0.000
    2        0.000   0.000  -0.000  -0.000
    3        0.000   0.000   0.000   0.000
    4       -0.000  -0.000   0.000  -0.000
    5        0.000   0.000   0.000   0.000
    6        0.000   0.000  -0.000   0.000
    7       -0.000   0.000  -0.000   0.000
    8        0.000   0.000  -0.000  -0.000
    9       -0.000  -0.000   0.000  -0.000
   10        0.000  -0.000   0.000  -0.000
   11       -0.000   0.000  -0.000   0.000
   12        0.000   0.000  -0.000   0.000
   13       -0.000   0.000  -0.000  -0.000
   14       -0.000  -0.000   0.000  -0.000
   15        0.000   0.000  -0.000   0.000
   16        0.000  -0.000  -0.000  -0.000
   17       -0.000  -0.000  -0.000  -0.000
   18        0.000   0.000   0.000   0.000
   19        0.000   0.000  -0.000   0.000
   20       -0.000   0.000  -0.000  -0.000
   21        0.000   0.000  -0.000   0.000
   22        0.000  -0.000   0.000  -0.000
   23        0.000   0.000  -0.000   0.000
   24       -0.000   0.000  -0.000   0.000
   25       -0.000  -0.000  -0.000  -0.000
   26       -0.000   0.000  -0.000   0.000
   27        0.000  -0.000   0.000   0.000
   28        0.000   0.000  -0.000   0.000
   29       -0.000  -0.000  -0.000  -0.000
   30        0.000   0.000   0.000   0.000
   31        0.000   0.000  -0.000   0.000
   32        0.000  -0.000   0.000  -0.000
   33       -0.000   0.000   0.000   0.000
   34        0.000   0.000  -0.000   0.000
   35       -0.000   0.000  -0.000   0.000
   36       -0.000  -0.000   0.000  -0.000
   37        0.000   0.000   0.000   0.000
   38        0.000   0.000  -0.000   0.000
   39        0.000   0.000  -0.000   0.000
   40       -0.000   0.000  -0.000  -0.000
   41        0.000  -0.000   0.000   0.000
   42        0.000   0.000  -0.000   0.000
   43       -0.000   0.000   0.000   0.000
   44        0.000   0.000  -0.000   0.000
   45       -0.000  -0.000   0.000  -0.000
   46        0.000   0.000  -0.000   0.000
   47       -0.000  -0.000  -0.000  -0.000
   48        0.000   0.000   0.000   0.000
   49        0.000  -0.000  -0.000   0.000
   50        0.000   0.000  -0.000   0.000
   51        0.000  -0.000   0.000  -0.000
   52       -0.000  -0.000   0.000  -0.000
   53       -0.000  -0.000  -0.000  -0.000
   54        0.000  -0.000   0.000  -0.000
   55        0.000  -0.000   0.000  -0.000
   56       -0.000   0.000  -0.000   0.000
   57       -0.000   0.000   0.000   0.000
   58       -0.000  -0.000   0.000  -0.000
   59       -0.000  -0.000  -0.000  -0.000
   60        0.000  -0.000   0.000   0.000
   61       -0.000   0.000   0.000   0.000
   62       -0.000  -0.000   0.000   0.000
   63        0.000   0.000  -0.000   0.000
   64       -0.000  -0.000  -0.000  -0.000
   65        0.000   0.000  -0.000   0.000
   66       -0.000   0.000  -0.000   0.000
   67       -0.000   0.000   0.000  -0.000
   68       -0.000   0.000  -0.000   0.000
   69       -0.000  -0.000   0.000  -0.000
   70        0.000  -0.000   0.000  -0.000
   71       -0.000   0.000   0.000   0.000
   72       -0.000   0.000   0.000   0.000
   73        0.000   0.000  -0.000   0.000
   74        0.000  -0.000   0.000  -0.000
   75        0.000   0.000  -0.000   0.000
   76        0.000  -0.000   0.000   0.000
   77       -0.000  -0.000   0.000  -0.000
   78        0.000  -0.000   0.000  -0.000
   79        0.000   0.000  -0.000   0.000
   80        0.000  -0.000   0.000  -0.000
   81       -0.000   0.000  -0.000  -0.000
   82       -0.000   0.000  -0.000  -0.000
   83       -0.000   0.000  -0.000   0.000
   84        0.000   0.000   0.000   0.000
   85       -0.000  -0.000   0.000  -0.000
   86        0.000   0.000  -0.000   0.000
   87        0.000   0.000  -0.000   0.000
   88        0.000   0.000  -0.000   0.000
   89        0.000  -0.000   0.000  -0.000
   90       -0.000  -0.000   0.000  -0.000
   91        0.000   0.000  -0.000   0.000
   92       -0.000  -0.000   0.000  -0.000
   93       -0.000  -0.000   0.000  -0.000
   94        0.000   0.000   0.000   0.000
   95        0.000   0.000   0.000   0.000
   96        0.000  -0.000   0.000   0.000
   97        0.000   0.000   0.000   0.000
   98       -0.000   0.000  -0.000   0.000
   99       -0.000   0.000   0.000   0.000
  100        0.000   0.000  -0.000  -0.000
  101       -0.000  -0.000  -0.000  -0.000
  102        0.000   0.000  -0.000   0.000
  103        0.000   0.000  -0.000   0.000
  104        0.000   0.000  -0.000   0.000
  105        0.000  -0.000   0.000  -0.000
  106       -0.000  -0.000   0.000  -0.000
  107       -0.000   0.000  -0.000  -0.000
  108        0.000  -0.000   0.000   0.000
  109        0.000   0.000   0.000   0.000
  110       -0.000   0.000  -0.000  -0.000
  111        0.000   0.000  -0.000   0.000
  112        0.000   0.000  -0.000   0.000
  113       -0.000   0.000  -0.000  -0.000
  114        0.000   0.000  -0.000   0.000
  115        0.000   0.000  -0.000   0.000
  116        0.000   0.000  -0.000   0.000
  117       -0.000   0.000  -0.000   0.000
  118       -0.000   0.000  -0.000   0.000
  119       -0.000  -0.000   0.000  -0.000
  120       -0.000  -0.000   0.000  -0.000
  121        0.000   0.000   0.000   0.000
  122        0.000   0.000   0.000   0.000
  123        0.000   0.000  -0.000   0.000
  124        0.000   0.000  -0.000   0.000
  125       -0.000  -0.000   0.000  -0.000
  126       -0.000  -0.000   0.000  -0.000
  127        0.000   0.000   0.000   0.000
  128        0.000   0.000  -0.000  -0.000
  129        0.000   0.000   0.000   0.000
  130        0.000  -0.000   0.000   0.000
  131       -0.000  -0.000   0.000  -0.000
  132       -0.000   0.000  -0.000  -0.000
  133        0.000   0.000  -0.000   0.000
  134       -0.000   0.000   0.000  -0.000
  135        0.000   0.000  -0.000   0.000
  136        0.000  -0.000   0.000  -0.000
  137        0.000  -0.000  -0.000   0.000
  138       -0.000  -0.000  -0.000  -0.000
  139       -0.000  -0.000  -0.000  -0.000
  140        0.000   0.000  -0.000   0.000
  141        0.000   0.000   0.000   0.000
  142        0.000  -0.000   0.000   0.000
  143        0.000   0.000   0.000   0.000
  144       -0.000  -0.000  -0.000  -0.000
  145       -0.000  -0.000   0.000  -0.000
  146       -0.000  -0.000  -0.000  -0.000
  147        0.000   0.000  -0.000   0.000
  148        0.000   0.000  -0.000   0.000
  149        0.000  -0.000   0.000   0.000
  150       -0.000  -0.000  -0.000  -0.000
  151       -0.000   0.000   0.000   0.000
  152        0.000  -0.000   0.000  -0.000
  153       -0.000  -0.000   0.000  -0.000
  154        0.000  -0.000   0.000  -0.000
  155       -0.000  -0.000   0.000  -0.000
  156        0.000   0.000   0.000   0.000
  157        0.000  -0.000   0.000  -0.000
  158       -0.000  -0.000   0.000  -0.000
  159       -0.000  -0.000   0.000  -0.000
  160       -0.000   0.000   0.000   0.000
  161       -0.000  -0.000   0.000  -0.000
  162        0.000   0.000   0.000   0.000
  163       -0.000   0.000   0.000   0.000
  164        0.000  -0.000   0.000  -0.000
  165        0.000   0.000   0.000   0.000
  166       -0.000  -0.000   0.000  -0.000
  167       -0.000   0.000   0.000   0.000
  168        0.000   0.000   0.000   0.000
  169        0.000   0.000   0.000   0.000
  170       -0.000   0.000   0.000   0.000
  171        0.000  -0.000   0.000  -0.000
  172       -0.000  -0.000   0.000  -0.000
  173       -0.000  -0.000   0.000  -0.000
  174        0.000   0.000   0.000   0.000
  175        0.000   0.000   0.000   0.000
  176       -0.000  -0.000   0.000  -0.000
  177        0.000  -0.000   0.000  -0.000
  178        0.000   0.000   0.000   0.000
  179        0.000   0.000   0.000   0.000
  180       -0.000   0.000   0.000  -0.000
  181       -0.000  -0.000   0.000  -0.000
  182       -0.000   0.000   0.000   0.000
  183        0.000  -0.000   0.000  -0.000
  184       -0.000  -0.000   0.000  -0.000
  185        0.000  -0.000   0.000  -0.000
  186       -0.000   0.000   0.000   0.000
  187       -0.000  -0.000   0.000  -0.000
  188       -0.000  -0.000   0.000  -0.000
  189        0.000   0.000   0.000   0.000
  190       -0.000  -0.000   0.000  -0.000
  191        0.000  -0.000   0.000  -0.000
  192        0.000   0.000   0.000   0.000
  193       -0.000  -0.000   0.000  -0.000
  194       -0.000   0.000   0.000   0.000
  195       -0.000   0.000   0.000   0.000
  196       -0.000   0.000   0.000   0.000
  197       -0.000  -0.000   0.000  -0.000
  198       -0.000  -0.000   0.000  -0.000
  199       -0.000  -0.000   0.000  -0.000
  200        0.000   0.000   0.000   0.000
  201       -0.000   0.000   0.000   0.000
  202        0.000  -0.000   0.000  -0.000
  203        0.000  -0.000   0.000  -0.000
  204       -0.000  -0.000   0.000  -0.000
  205       -0.000  -0.000   0.000  -0.000
  206       -0.000  -0.000   0.000  -0.000
  207       -0.000  -0.000   0.000  -0.000
  208       -0.000  -0.000   0.000  -0.000
  209        0.000   0.000   0.000   0.000
  210        0.000   0.000   0.000   0.000
  211       -0.000  -0.000   0.000  -0.000
  212       -0.000   0.000   0.000   0.000
  213        0.000  -0.000   0.000  -0.000
  214        0.000   0.000   0.000   0.000
  215        0.000  -0.000   0.000  -0.000
  216        0.000   0.000   0.000   0.000
  217       -0.000   0.000   0.000  -0.000
  218        0.000   0.000   0.000   0.000
  219       -0.000  -0.000   0.000  -0.000
  220        0.000   0.000   0.000   0.000
  221        0.000   0.000   0.000   0.000
  222        0.000   0.000   0.000   0.000
  223       -0.000   0.000   0.000  -0.000
  224       -0.000  -0.000   0.000  -0.000
  225       -0.000  -0.000   0.000  -0.000
  226       -0.000  -0.000   0.000  -0.000
  227        0.000   0.000   0.000   0.000
  228        0.000   0.000   0.000   0.000
  229        0.000   0.000   0.000   0.000
  230        0.000   0.000   0.000   0.000
  231       -0.000  -0.000   0.000  -0.000
  232       -0.000  -0.000   0.000  -0.000
  233       -0.000  -0.000   0.000  -0.000
  234        0.000   0.000   0.000   0.000
  235        0.000  -0.000   0.000  -0.000
  236       -0.000   0.000   0.000   0.000
  237        0.000   0.000   0.000   0.000
  238        0.000  -0.000   0.000   0.000
  239       -0.000   0.000   0.000   0.000
  240       -0.000  -0.000   0.000  -0.000
  241       -0.000  -0.000   0.000  -0.000
  242        0.000  -0.000   0.000  -0.000
  243        0.000   0.000   0.000   0.000
  244       -0.000  -0.000   0.000  -0.000
  245        0.000  -0.000   0.000  -0.000
  246        0.000   0.000   0.000   0.000
  247        0.000   0.000   0.000   0.000
  248       -0.000  -0.000   0.000  -0.000
  249        0.000   0.000   0.000   0.000
  250        0.000   0.000   0.000   0.000
  251        0.000  -0.000   0.000  -0.000
  252       -0.000   0.000   0.000   0.000
  253       -0.000  -0.000   0.000  -0.000
  254       -0.000  -0.000   0.000  -0.000
  255       -0.000  -0.000   0.000  -0.000
  256        0.000   0.000   0.000   0.000
  257       -0.000   0.000   0.000  -0.000
  258        0.000   0.000   0.000   0.000
  259       -0.000  -0.000   0.000  -0.000
  260       -0.000  -0.000   0.000  -0.000
  261       -0.000  -0.000   0.000  -0.000
  262       -0.000  -0.000   0.000  -0.000
  263       -0.000  -0.000   0.000  -0.000
  264        0.000  -0.000   0.000  -0.000
  265       -0.000  -0.000   0.000  -0.000
  266       -0.000   0.000   0.000   0.000
  267        0.000   0.000   0.000   0.000
  268        0.000   0.000   0.000   0.000
  269        0.000   0.000   0.000   0.000
  270       -0.000  -0.000   0.000  -0.000
  271        0.000  -0.000   0.000   0.000
  272       -0.000   0.000   0.000   0.000
  273       -0.000  -0.000   0.000  -0.000
  274       -0.000  -0.000   0.000  -0.000
  275       -0.000  -0.000   0.000  -0.000
  276       -0.000  -0.000   0.000  -0.000
  277        0.000  -0.000   0.000  -0.000
  278        0.000  -0.000   0.000  -0.000
  279       -0.000   0.000   0.000   0.000
  280        0.000   0.000   0.000   0.000
  281       -0.000   0.000   0.000   0.000
  282       -0.000  -0.000   0.000  -0.000
  283       -0.000  -0.000   0.000  -0.000
  284        0.000   0.000   0.000   0.000
  285       -0.000  -0.000   0.000  -0.000
  286       -0.000  -0.000   0.000  -0.000
  287       -0.000   0.000   0.000   0.000
  288       -0.000   0.000   0.000   0.000
  289        0.000   0.000   0.000   0.000
  290       -0.000   0.000   0.000   0.000
  291        0.000  -0.000   0.000  -0.000
  292       -0.000   0.000   0.000   0.000
  293        0.000   0.000   0.000   0.000
  294        0.000  -0.000   0.000  -0.000
  295        0.000   0.000   0.000   0.000
  296       -0.000  -0.000   0.000  -0.000
  297        0.000   0.000   0.000   0.000
  298       -0.000  -0.000   0.000  -0.000
  299       -0.000  -0.000   0.000  -0.000
  300        0.000  -0.000   0.000  -0.000
--------------------------------------------------
tot          0.000  -0.000  -0.000   0.000
 

 total amount of memory used by VASP MPI-rank0    68966. kBytes
=======================================================================

   base      :      30000. kBytes
   nonlr-proj:       7646. kBytes
   fftplans  :       5732. kBytes
   grid      :      15963. kBytes
   one-center:        105. kBytes
   wavefun   :       9520. kBytes
 
  
  
 General timing and accounting informations for this job:
 ========================================================
  
                  Total CPU time used (sec):     1222.211
                            User time (sec):     1214.376
                          System time (sec):        7.835
                         Elapsed time (sec):     1235.646
  
                   Maximum memory used (kb):      480004.
                   Average memory used (kb):          N/A
  
                          Minor page faults:       450594
                          Major page faults:           52
                 Voluntary context switches:        10942
