ITEM: TIMESTEP
10115
ITEM: NUMBER OF ATOMS
5400
ITEM: BOX BOUNDS xy xz yz pp pp pp
-1.2274701360000000e-06 7.2434683890000002e+01 2.4144874590000001e+01
-1.7284199339999999e-06 4.1820163800000003e+01 -1.2274701360000000e-06
0.0000000000000000e+00 3.1469031000000001e+01 -1.7284199339999999e-06
ITEM: ATOMS id type x y z
76 1 1.51426 1.05367 2.66349
91 1 4.73358 1.05367 2.66349
94 1 3.12392 3.84168 2.66349
109 1 6.34324 3.84168 2.66349
112 1 4.73358 6.62969 2.66349
127 1 7.9529 6.62969 2.66349
166 2 3.12392 1.983 2.00971
184 2 4.73358 4.77101 2.00971
16 1 3.12392 1.983 5.28591
34 1 4.73358 4.77101 5.28591
77 1 1.51426 1.05367 7.90833
92 1 4.73358 1.05367 7.90833
95 1 3.12392 3.84168 7.90833
110 1 6.34324 3.84168 7.90833
113 1 4.73358 6.62969 7.90833
128 1 7.9529 6.62969 7.90833
167 2 3.12392 1.983 7.25455
185 2 4.73358 4.77101 7.25455
277 2 7.9529 6.62969 4.63213
226 2 1.51426 1.05367 4.63213
241 2 4.73358 1.05367 4.63213
244 2 3.12392 3.84168 4.63213
259 2 6.34324 3.84168 4.63213
262 2 4.73358 6.62969 4.63213
17 1 3.12392 1.983 10.5307
35 1 4.73358 4.77101 10.5307
227 2 1.51426 1.05367 9.87697
242 2 4.73358 1.05367 9.87697
245 2 3.12392 3.84168 9.87697
260 2 6.34324 3.84168 9.87697
263 2 4.73358 6.62969 9.87697
278 2 7.9529 6.62969 9.87697
510 2 19.2205 13.135 12.4994
492 2 17.6109 10.347 12.4994
78 1 1.51426 1.05367 13.1532
93 1 4.73358 1.05367 13.1532
96 1 3.12392 3.84168 13.1532
111 1 6.34324 3.84168 13.1532
114 1 4.73358 6.62969 13.1532
129 1 7.9529 6.62969 13.1532
168 2 3.12392 1.983 12.4994
279 2 7.9529 6.62969 15.1218
186 2 4.73358 4.77101 12.4994
228 2 1.51426 1.05367 15.1218
243 2 4.73358 1.05367 15.1218
246 2 3.12392 3.84168 15.1218
261 2 6.34324 3.84168 15.1218
264 2 4.73358 6.62969 15.1218
130 1 6.34324 9.4177 2.66349
145 1 9.56256 9.4177 2.66349
148 1 7.95289 12.2057 2.66349
202 2 6.34324 7.55902 2.00971
220 2 7.9529 10.347 2.00971
388 1 11.1722 12.2057 2.66349
463 2 9.56255 13.135 2.00971
52 1 6.34324 7.55902 5.28591
70 1 7.9529 10.347 5.28591
131 1 6.34324 9.4177 7.90833
146 1 9.56256 9.4177 7.90833
149 1 7.95289 12.2057 7.90833
298 2 7.95289 12.2057 4.63213
203 2 6.34324 7.55902 7.25455
221 2 7.9529 10.347 7.25455
280 2 6.34324 9.4177 4.63213
295 2 9.56256 9.4177 4.63213
313 1 9.56255 13.135 5.28591
389 1 11.1722 12.2057 7.90833
464 2 9.56255 13.135 7.25455
538 2 11.1722 12.2057 4.63213
53 1 6.34324 7.55902 10.5307
71 1 7.9529 10.347 10.5307
281 2 6.34324 9.4177 9.87697
296 2 9.56256 9.4177 9.87697
299 2 7.95289 12.2057 9.87697
314 1 9.56255 13.135 10.5307
539 2 11.1722 12.2057 9.87697
474 2 16.0012 7.55902 12.4994
3006 1 14.3915 4.77101 0.0410714
132 1 6.34324 9.4177 13.1532
147 1 9.56256 9.4177 13.1532
150 1 7.95289 12.2057 13.1532
204 2 6.34324 7.55902 12.4994
222 2 7.9529 10.347 12.4994
282 2 6.34324 9.4177 15.1218
297 2 9.56256 9.4177 15.1218
300 2 7.95289 12.2057 15.1218
2763 1 12.7819 1.983 0.0410713
390 1 11.1722 12.2057 13.1532
465 2 9.56255 13.135 12.4994
540 2 11.1722 12.2057 15.1218
106 1 7.9529 1.05367 2.66349
121 1 11.1722 1.05367 2.66349
124 1 9.56256 3.84168 2.66349
139 1 12.7819 3.84168 2.66349
142 1 11.1722 6.62969 2.66349
181 2 6.34324 1.983 2.00971
196 2 9.56256 1.983 2.00971
199 2 7.9529 4.77101 2.00971
214 2 11.1722 4.77101 2.00971
382 1 14.3915 6.62969 2.66349
31 1 6.34324 1.983 5.28591
46 1 9.56256 1.983 5.28591
49 1 7.9529 4.77101 5.28591
64 1 11.1722 4.77101 5.28591
107 1 7.9529 1.05367 7.90833
122 1 11.1722 1.05367 7.90833
125 1 9.56256 3.84168 7.90833
140 1 12.7819 3.84168 7.90833
143 1 11.1722 6.62969 7.90833
182 2 6.34324 1.983 7.25455
197 2 9.56256 1.983 7.25455
215 2 11.1722 4.77101 7.25455
256 2 7.9529 1.05367 4.63213
271 2 11.1722 1.05367 4.63213
274 2 9.56256 3.84168 4.63213
292 2 11.1722 6.62969 4.63213
289 2 12.7819 3.84168 4.63213
200 2 7.9529 4.77101 7.25455
383 1 14.3915 6.62969 7.90833
532 2 14.3915 6.62969 4.63213
32 1 6.34324 1.983 10.5307
47 1 9.56256 1.983 10.5307
50 1 7.9529 4.77101 10.5307
65 1 11.1722 4.77101 10.5307
257 2 7.9529 1.05367 9.87697
272 2 11.1722 1.05367 9.87697
275 2 9.56256 3.84168 9.87697
290 2 12.7819 3.84168 9.87697
293 2 11.1722 6.62969 9.87697
533 2 14.3915 6.62969 9.87697
2766 1 11.1722 4.77101 0.0410713
2748 1 9.56256 1.983 0.0410713
2754 1 6.34324 7.55902 0.0410712
2736 1 4.73358 4.77101 0.0410712
108 1 7.9529 1.05367 13.1532
123 1 11.1722 1.05367 13.1532
126 1 9.56256 3.84168 13.1532
141 1 12.7819 3.84168 13.1532
144 1 11.1722 6.62969 13.1532
198 2 9.56256 1.983 12.4994
201 2 7.9529 4.77101 12.4994
216 2 11.1722 4.77101 12.4994
258 2 7.9529 1.05367 15.1218
273 2 11.1722 1.05367 15.1218
276 2 9.56256 3.84168 15.1218
294 2 11.1722 6.62969 15.1218
291 2 12.7819 3.84168 15.1218
183 2 6.34324 1.983 12.4994
384 1 14.3915 6.62969 13.1532
534 2 14.3915 6.62969 15.1218
217 2 9.56256 7.55902 2.00971
385 1 12.7819 9.4177 2.66349
400 1 16.0012 9.4177 2.66349
403 1 14.3915 12.2057 2.66349
418 1 17.6109 12.2057 2.66349
457 2 12.7819 7.55902 2.00971
460 2 11.1722 10.347 2.00971
475 2 14.3915 10.347 2.00971
478 2 12.7819 13.135 2.00971
493 2 16.0012 13.135 2.00971
67 1 9.56256 7.55902 5.28591
218 2 9.56256 7.55902 7.25455
307 1 12.7819 7.55902 5.28591
310 1 11.1722 10.347 5.28591
325 1 14.3915 10.347 5.28591
328 1 12.7819 13.135 5.28591
343 1 16.0012 13.135 5.28591
386 1 12.7819 9.4177 7.90833
401 1 16.0012 9.4177 7.90833
404 1 14.3915 12.2057 7.90833
419 1 17.6109 12.2057 7.90833
458 2 12.7819 7.55902 7.25455
461 2 11.1722 10.347 7.25455
476 2 14.3915 10.347 7.25455
494 2 16.0012 13.135 7.25455
535 2 12.7819 9.4177 4.63213
550 2 16.0012 9.4177 4.63213
553 2 14.3915 12.2057 4.63213
568 2 17.6109 12.2057 4.63213
479 2 12.7819 13.135 7.25455
68 1 9.56256 7.55902 10.5307
308 1 12.7819 7.55902 10.5307
311 1 11.1722 10.347 10.5307
326 1 14.3915 10.347 10.5307
329 1 12.7819 13.135 10.5307
344 1 16.0012 13.135 10.5307
536 2 12.7819 9.4177 9.87697
551 2 16.0012 9.4177 9.87697
554 2 14.3915 12.2057 9.87697
569 2 17.6109 12.2057 9.87697
359 1 19.2205 13.135 10.5307
219 2 9.56256 7.55902 12.4994
2718 1 3.12392 1.983 0.0410712
341 1 17.6109 10.347 10.5307
323 1 16.0012 7.55902 10.5307
509 2 19.2205 13.135 7.25455
491 2 17.6109 10.347 7.25455
387 1 12.7819 9.4177 13.1532
402 1 16.0012 9.4177 13.1532
405 1 14.3915 12.2057 13.1532
420 1 17.6109 12.2057 13.1532
459 2 12.7819 7.55902 12.4994
462 2 11.1722 10.347 12.4994
477 2 14.3915 10.347 12.4994
480 2 12.7819 13.135 12.4994
495 2 16.0012 13.135 12.4994
537 2 12.7819 9.4177 15.1218
552 2 16.0012 9.4177 15.1218
555 2 14.3915 12.2057 15.1218
570 2 17.6109 12.2057 15.1218
211 2 12.7819 1.983 2.00971
454 2 14.3915 4.77101 2.00971
61 1 12.7819 1.983 5.28591
212 2 12.7819 1.983 7.25455
304 1 14.3915 4.77101 5.28591
455 2 14.3915 4.77101 7.25455
62 1 12.7819 1.983 10.5307
305 1 14.3915 4.77101 10.5307
473 2 16.0012 7.55902 7.25455
213 2 12.7819 1.983 12.4994
358 1 19.2205 13.135 5.28591
456 2 14.3915 4.77101 12.4994
472 2 16.0012 7.55902 2.00971
490 2 17.6109 10.347 2.00971
508 2 19.2205 13.135 2.00971
322 1 16.0012 7.55902 5.28591
340 1 17.6109 10.347 5.28591
2772 1 7.9529 10.347 0.0410713
3015 1 9.56255 13.135 0.0410713
2733 1 6.34324 1.983 0.0410712
3060 1 19.2205 13.135 0.0410714
2751 1 7.9529 4.77101 0.0410712
3042 1 17.6109 10.347 0.0410714
2769 1 9.56256 7.55902 0.0410713
3009 1 12.7819 7.55902 0.0410713
3012 1 11.1722 10.347 0.0410713
3027 1 14.3915 10.347 0.0410714
3030 1 12.7819 13.135 0.0410714
3045 1 16.0012 13.135 0.0410714
3024 1 16.0012 7.55902 0.0410714
2776 1 1.51426 1.05367 18.398
2791 1 4.73358 1.05367 18.398
2794 1 3.12392 3.84168 18.398
2809 1 6.34324 3.84168 18.398
2812 1 4.73358 6.62969 18.398
2827 1 7.9529 6.62969 18.398
2866 2 3.12392 1.983 17.7442
2884 2 4.73358 4.77101 17.7442
2716 1 3.12392 1.983 21.0204
2734 1 4.73358 4.77101 21.0204
2777 1 1.51426 1.05367 23.6428
2792 1 4.73358 1.05367 23.6428
2795 1 3.12392 3.84168 23.6428
2810 1 6.34324 3.84168 23.6428
2813 1 4.73358 6.62969 23.6428
2828 1 7.9529 6.62969 23.6428
2867 2 3.12392 1.983 22.9891
2885 2 4.73358 4.77101 22.9891
2977 2 7.9529 6.62969 20.3666
2926 2 1.51426 1.05367 20.3666
2941 2 4.73358 1.05367 20.3666
2944 2 3.12392 3.84168 20.3666
2959 2 6.34324 3.84168 20.3666
2962 2 4.73358 6.62969 20.3666
2717 1 3.12392 1.983 26.2653
2735 1 4.73358 4.77101 26.2653
2927 2 1.51426 1.05367 25.6115
2942 2 4.73358 1.05367 25.6115
2945 2 3.12392 3.84168 25.6115
2960 2 6.34324 3.84168 25.6115
2963 2 4.73358 6.62969 25.6115
2978 2 7.9529 6.62969 25.6115
3210 2 19.2205 13.135 28.2339
3192 2 17.6109 10.347 28.2339
2778 1 1.51426 1.05366 28.8877
2793 1 4.73358 1.05366 28.8877
2796 1 3.12392 3.84168 28.8877
2811 1 6.34324 3.84168 28.8877
2814 1 4.73358 6.62969 28.8877
2829 1 7.9529 6.62969 28.8877
2868 2 3.12392 1.983 28.2339
2979 2 7.9529 6.62969 30.8563
2886 2 4.73358 4.77101 28.2339
2928 2 1.51426 1.05366 30.8563
2943 2 4.73358 1.05366 30.8563
2946 2 3.12392 3.84168 30.8563
2961 2 6.34324 3.84168 30.8563
2964 2 4.73358 6.62969 30.8563
2830 1 6.34324 9.4177 18.398
2845 1 9.56256 9.4177 18.398
2848 1 7.95289 12.2057 18.398
2902 2 6.34324 7.55902 17.7442
2920 2 7.9529 10.347 17.7442
3088 1 11.1722 12.2057 18.398
3163 2 9.56255 13.135 17.7442
2752 1 6.34324 7.55902 21.0204
2770 1 7.9529 10.347 21.0204
2831 1 6.34324 9.4177 23.6428
2846 1 9.56256 9.4177 23.6428
2849 1 7.95289 12.2057 23.6428
2998 2 7.95289 12.2057 20.3666
2903 2 6.34324 7.55902 22.9891
2921 2 7.9529 10.347 22.9891
2980 2 6.34324 9.4177 20.3666
2995 2 9.56256 9.4177 20.3666
3013 1 9.56255 13.135 21.0204
3089 1 11.1722 12.2057 23.6428
3164 2 9.56255 13.135 22.9891
3238 2 11.1722 12.2057 20.3666
2753 1 6.34324 7.55902 26.2653
2771 1 7.9529 10.347 26.2653
2981 2 6.34324 9.4177 25.6115
2996 2 9.56256 9.4177 25.6115
2999 2 7.95289 12.2057 25.6115
3014 1 9.56255 13.135 26.2653
3239 2 11.1722 12.2057 25.6115
3174 2 16.0012 7.55902 28.2339
69 1 9.56256 7.55902 15.7756
2832 1 6.34324 9.4177 28.8877
2847 1 9.56256 9.4177 28.8877
2850 1 7.95289 12.2057 28.8877
2904 2 6.34324 7.55902 28.2339
2922 2 7.9529 10.347 28.2339
2982 2 6.34324 9.4177 30.8563
2997 2 9.56256 9.4177 30.8563
3000 2 7.95289 12.2057 30.8563
51 1 7.9529 4.77101 15.7756
3090 1 11.1722 12.2057 28.8877
3165 2 9.56255 13.135 28.2339
3240 2 11.1722 12.2057 30.8563
2806 1 7.9529 1.05367 18.398
2821 1 11.1722 1.05367 18.398
2824 1 9.56256 3.84168 18.398
2839 1 12.7819 3.84168 18.398
2842 1 11.1722 6.62969 18.398
2881 2 6.34324 1.983 17.7442
2896 2 9.56256 1.983 17.7442
2899 2 7.9529 4.77101 17.7442
2914 2 11.1722 4.77101 17.7442
3082 1 14.3915 6.62969 18.398
2731 1 6.34324 1.983 21.0204
2746 1 9.56256 1.983 21.0204
2749 1 7.9529 4.77101 21.0204
2764 1 11.1722 4.77101 21.0204
2807 1 7.9529 1.05367 23.6428
2822 1 11.1722 1.05367 23.6428
2825 1 9.56256 3.84168 23.6428
2840 1 12.7819 3.84168 23.6428
2843 1 11.1722 6.62969 23.6428
2882 2 6.34324 1.983 22.9891
2897 2 9.56256 1.983 22.9891
2915 2 11.1722 4.77101 22.9891
2956 2 7.9529 1.05367 20.3666
2971 2 11.1722 1.05367 20.3666
2974 2 9.56256 3.84168 20.3666
2992 2 11.1722 6.62969 20.3666
2989 2 12.7819 3.84168 20.3666
2900 2 7.9529 4.77101 22.9891
3083 1 14.3915 6.62969 23.6428
3232 2 14.3915 6.62969 20.3666
2732 1 6.34324 1.983 26.2653
2747 1 9.56256 1.983 26.2653
2750 1 7.9529 4.77101 26.2653
2765 1 11.1722 4.77101 26.2653
2957 2 7.9529 1.05367 25.6115
2972 2 11.1722 1.05367 25.6115
2975 2 9.56256 3.84168 25.6115
2990 2 12.7819 3.84168 25.6115
2993 2 11.1722 6.62969 25.6115
3233 2 14.3915 6.62969 25.6115
33 1 6.34324 1.983 15.7756
72 1 7.9529 10.347 15.7756
54 1 6.34324 7.55902 15.7756
36 1 4.73358 4.77101 15.7756
2808 1 7.9529 1.05366 28.8877
2823 1 11.1722 1.05366 28.8877
2826 1 9.56256 3.84168 28.8877
2841 1 12.7819 3.84168 28.8877
2844 1 11.1722 6.62969 28.8877
2898 2 9.56256 1.983 28.2339
2901 2 7.9529 4.77101 28.2339
2916 2 11.1722 4.77101 28.2339
2958 2 7.9529 1.05366 30.8563
2973 2 11.1722 1.05366 30.8563
2976 2 9.56256 3.84168 30.8563
2994 2 11.1722 6.62969 30.8563
2991 2 12.7819 3.84168 30.8563
2883 2 6.34324 1.983 28.2339
3084 1 14.3915 6.62969 28.8877
3234 2 14.3915 6.62969 30.8563
2917 2 9.56256 7.55902 17.7442
3085 1 12.7819 9.4177 18.398
3100 1 16.0012 9.4177 18.398
3103 1 14.3915 12.2057 18.398
3118 1 17.6109 12.2057 18.398
3157 2 12.7819 7.55902 17.7442
3160 2 11.1722 10.347 17.7442
3175 2 14.3915 10.347 17.7442
3178 2 12.7819 13.135 17.7442
3193 2 16.0012 13.135 17.7442
2767 1 9.56256 7.55902 21.0204
2918 2 9.56256 7.55902 22.9891
3007 1 12.7819 7.55902 21.0204
3010 1 11.1722 10.347 21.0204
3025 1 14.3915 10.347 21.0204
3028 1 12.7819 13.135 21.0204
3043 1 16.0012 13.135 21.0204
3086 1 12.7819 9.4177 23.6428
3101 1 16.0012 9.4177 23.6428
3104 1 14.3915 12.2057 23.6428
3119 1 17.6109 12.2057 23.6428
3158 2 12.7819 7.55902 22.9891
3161 2 11.1722 10.347 22.9891
3176 2 14.3915 10.347 22.9891
3194 2 16.0012 13.135 22.9891
3235 2 12.7819 9.4177 20.3666
3250 2 16.0012 9.4177 20.3666
3253 2 14.3915 12.2057 20.3666
3268 2 17.6109 12.2057 20.3666
3179 2 12.7819 13.135 22.9891
2768 1 9.56256 7.55902 26.2653
3008 1 12.7819 7.55902 26.2653
3011 1 11.1722 10.347 26.2653
3026 1 14.3915 10.347 26.2653
3029 1 12.7819 13.135 26.2653
3044 1 16.0012 13.135 26.2653
3236 2 12.7819 9.4177 25.6115
3251 2 16.0012 9.4177 25.6115
3254 2 14.3915 12.2057 25.6115
3269 2 17.6109 12.2057 25.6115
18 1 3.12392 1.983 15.7756
2919 2 9.56256 7.55902 28.2339
3041 1 17.6109 10.347 26.2653
3023 1 16.0012 7.55902 26.2653
3209 2 19.2205 13.135 22.9891
3191 2 17.6109 10.347 22.9891
3173 2 16.0012 7.55902 22.9891
3087 1 12.7819 9.4177 28.8877
3102 1 16.0012 9.4177 28.8877
3105 1 14.3915 12.2057 28.8877
3120 1 17.6109 12.2057 28.8877
3159 2 12.7819 7.55902 28.2339
3162 2 11.1722 10.347 28.2339
3177 2 14.3915 10.347 28.2339
3180 2 12.7819 13.135 28.2339
3195 2 16.0012 13.135 28.2339
3237 2 12.7819 9.4177 30.8563
3252 2 16.0012 9.4177 30.8563
3255 2 14.3915 12.2057 30.8563
3270 2 17.6109 12.2057 30.8563
2911 2 12.7819 1.983 17.7442
3154 2 14.3915 4.77101 17.7442
2761 1 12.7819 1.983 21.0204
2912 2 12.7819 1.983 22.9891
3004 1 14.3915 4.77101 21.0204
3155 2 14.3915 4.77101 22.9891
2762 1 12.7819 1.983 26.2653
3005 1 14.3915 4.77101 26.2653
3058 1 19.2205 13.135 21.0204
2913 2 12.7819 1.983 28.2339
3059 1 19.2205 13.135 26.2653
3156 2 14.3915 4.77101 28.2339
3172 2 16.0012 7.55902 17.7442
3190 2 17.6109 10.347 17.7442
3208 2 19.2205 13.135 17.7442
3022 1 16.0012 7.55902 21.0204
3040 1 17.6109 10.347 21.0204
360 1 19.2205 13.135 15.7756
315 1 9.56255 13.135 15.7756
342 1 17.6109 10.347 15.7756
48 1 9.56256 1.983 15.7756
324 1 16.0012 7.55902 15.7756
66 1 11.1722 4.77101 15.7756
309 1 12.7819 7.55902 15.7756
312 1 11.1722 10.347 15.7756
327 1 14.3915 10.347 15.7756
330 1 12.7819 13.135 15.7756
345 1 16.0012 13.135 15.7756
63 1 12.7819 1.983 15.7756
306 1 14.3915 4.77101 15.7756
976 1 9.56255 14.9937 2.66349
991 1 12.7819 14.9937 2.66349
994 1 11.1722 17.7817 2.66349
1009 1 14.3915 17.7817 2.66349
1012 1 12.7819 20.5697 2.66349
1027 1 16.0012 20.5697 2.66349
1066 2 11.1722 15.9231 2.00971
1084 2 12.7819 18.7111 2.00971
916 1 11.1722 15.9231 5.28591
934 1 12.7819 18.7111 5.28591
977 1 9.56255 14.9937 7.90833
992 1 12.7819 14.9937 7.90833
995 1 11.1722 17.7817 7.90833
1010 1 14.3915 17.7817 7.90833
1013 1 12.7819 20.5697 7.90833
1028 1 16.0012 20.5697 7.90833
1067 2 11.1722 15.9231 7.25455
1085 2 12.7819 18.7111 7.25455
1177 2 16.0012 20.5697 4.63213
1126 2 9.56255 14.9937 4.63213
1141 2 12.7819 14.9937 4.63213
1144 2 11.1722 17.7817 4.63213
1159 2 14.3915 17.7817 4.63213
1162 2 12.7819 20.5697 4.63213
917 1 11.1722 15.9231 10.5307
935 1 12.7819 18.7111 10.5307
1127 2 9.56255 14.9937 9.87697
1142 2 12.7819 14.9937 9.87697
1145 2 11.1722 17.7817 9.87697
1160 2 14.3915 17.7817 9.87697
1163 2 12.7819 20.5697 9.87697
1178 2 16.0012 20.5697 9.87697
1410 2 27.2688 27.0751 12.4994
1392 2 25.6591 24.2871 12.4994
978 1 9.56255 14.9937 13.1532
993 1 12.7819 14.9937 13.1532
996 1 11.1722 17.7817 13.1532
1011 1 14.3915 17.7817 13.1532
1014 1 12.7819 20.5697 13.1532
1029 1 16.0012 20.5697 13.1532
1068 2 11.1722 15.9231 12.4994
1179 2 16.0012 20.5697 15.1218
1086 2 12.7819 18.7111 12.4994
1128 2 9.56255 14.9937 15.1218
1143 2 12.7819 14.9937 15.1218
1146 2 11.1722 17.7817 15.1218
1161 2 14.3915 17.7817 15.1218
1164 2 12.7819 20.5697 15.1218
1030 1 14.3915 23.3578 2.66349
1045 1 17.6108 23.3578 2.66349
1048 1 16.0012 26.1458 2.66349
1102 2 14.3915 21.4991 2.00971
1120 2 16.0012 24.2871 2.00971
1288 1 19.2205 26.1458 2.66349
1363 2 17.6108 27.0751 2.00971
952 1 14.3915 21.4991 5.28591
970 1 16.0012 24.2871 5.28591
1031 1 14.3915 23.3578 7.90833
1046 1 17.6108 23.3578 7.90833
1049 1 16.0012 26.1458 7.90833
1198 2 16.0012 26.1458 4.63213
1103 2 14.3915 21.4991 7.25455
1121 2 16.0012 24.2871 7.25455
1180 2 14.3915 23.3578 4.63213
1195 2 17.6108 23.3578 4.63213
1213 1 17.6108 27.0751 5.28591
1289 1 19.2205 26.1458 7.90833
1364 2 17.6108 27.0751 7.25455
1438 2 19.2205 26.1458 4.63213
953 1 14.3915 21.4991 10.5307
971 1 16.0012 24.2871 10.5307
1181 2 14.3915 23.3578 9.87697
1196 2 17.6108 23.3578 9.87697
1199 2 16.0012 26.1458 9.87697
1214 1 17.6108 27.0751 10.5307
1439 2 19.2205 26.1458 9.87697
1374 2 24.0495 21.4991 12.4994
1259 1 27.2688 27.0751 10.5307
1032 1 14.3915 23.3578 13.1532
1047 1 17.6108 23.3578 13.1532
1050 1 16.0012 26.1458 13.1532
1104 2 14.3915 21.4991 12.4994
1122 2 16.0012 24.2871 12.4994
1182 2 14.3915 23.3578 15.1218
1197 2 17.6108 23.3578 15.1218
1200 2 16.0012 26.1458 15.1218
1241 1 25.6591 24.2871 10.5307
1290 1 19.2205 26.1458 13.1532
1365 2 17.6108 27.0751 12.4994
1440 2 19.2205 26.1458 15.1218
1006 1 16.0012 14.9937 2.66349
1021 1 19.2205 14.9937 2.66349
1024 1 17.6109 17.7817 2.66349
1039 1 20.8302 17.7817 2.66349
1042 1 19.2205 20.5697 2.66349
1081 2 14.3915 15.9231 2.00971
1096 2 17.6109 15.9231 2.00971
1099 2 16.0012 18.7111 2.00971
1114 2 19.2205 18.7111 2.00971
1282 1 22.4398 20.5697 2.66349
931 1 14.3915 15.9231 5.28591
946 1 17.6109 15.9231 5.28591
949 1 16.0012 18.7111 5.28591
964 1 19.2205 18.7111 5.28591
1007 1 16.0012 14.9937 7.90833
1022 1 19.2205 14.9937 7.90833
1025 1 17.6109 17.7817 7.90833
1040 1 20.8302 17.7817 7.90833
1043 1 19.2205 20.5697 7.90833
1082 2 14.3915 15.9231 7.25455
1097 2 17.6109 15.9231 7.25455
1115 2 19.2205 18.7111 7.25455
1156 2 16.0012 14.9937 4.63213
1171 2 19.2205 14.9937 4.63213
1174 2 17.6109 17.7817 4.63213
1192 2 19.2205 20.5697 4.63213
1189 2 20.8302 17.7817 4.63213
1100 2 16.0012 18.7111 7.25455
1283 1 22.4398 20.5697 7.90833
1432 2 22.4398 20.5697 4.63213
932 1 14.3915 15.9231 10.5307
947 1 17.6109 15.9231 10.5307
950 1 16.0012 18.7111 10.5307
965 1 19.2205 18.7111 10.5307
1157 2 16.0012 14.9937 9.87697
1172 2 19.2205 14.9937 9.87697
1175 2 17.6109 17.7817 9.87697
1190 2 20.8302 17.7817 9.87697
1193 2 19.2205 20.5697 9.87697
1433 2 22.4398 20.5697 9.87697
1223 1 24.0495 21.4991 10.5307
1409 2 27.2688 27.0751 7.25455
1391 2 25.6591 24.2871 7.25455
1373 2 24.0495 21.4991 7.25455
1008 1 16.0012 14.9937 13.1532
1023 1 19.2205 14.9937 13.1532
1026 1 17.6109 17.7817 13.1532
1041 1 20.8302 17.7817 13.1532
1044 1 19.2205 20.5697 13.1532
1098 2 17.6109 15.9231 12.4994
1101 2 16.0012 18.7111 12.4994
1116 2 19.2205 18.7111 12.4994
1158 2 16.0012 14.9937 15.1218
1173 2 19.2205 14.9937 15.1218
1176 2 17.6109 17.7817 15.1218
1194 2 19.2205 20.5697 15.1218
1191 2 20.8302 17.7817 15.1218
1083 2 14.3915 15.9231 12.4994
1284 1 22.4398 20.5697 13.1532
1434 2 22.4398 20.5697 15.1218
1117 2 17.6109 21.4991 2.00971
1285 1 20.8302 23.3578 2.66349
1300 1 24.0495 23.3578 2.66349
1303 1 22.4398 26.1458 2.66349
1318 1 25.6591 26.1458 2.66349
1357 2 20.8302 21.4991 2.00971
1360 2 19.2205 24.2871 2.00971
1375 2 22.4398 24.2871 2.00971
1378 2 20.8302 27.0751 2.00971
1393 2 24.0495 27.0751 2.00971
967 1 17.6109 21.4991 5.28591
1118 2 17.6109 21.4991 7.25455
1207 1 20.8302 21.4991 5.28591
1210 1 19.2205 24.2871 5.28591
1225 1 22.4398 24.2871 5.28591
1228 1 20.8302 27.0751 5.28591
1243 1 24.0495 27.0751 5.28591
1286 1 20.8302 23.3578 7.90833
1301 1 24.0495 23.3578 7.90833
1304 1 22.4398 26.1458 7.90833
1319 1 25.6591 26.1458 7.90833
1358 2 20.8302 21.4991 7.25455
1361 2 19.2205 24.2871 7.25455
1376 2 22.4398 24.2871 7.25455
1394 2 24.0495 27.0751 7.25455
1435 2 20.8302 23.3578 4.63213
1450 2 24.0495 23.3578 4.63213
1453 2 22.4398 26.1458 4.63213
1468 2 25.6591 26.1458 4.63213
1379 2 20.8302 27.0751 7.25455
968 1 17.6108 21.4991 10.5307
1208 1 20.8302 21.4991 10.5307
1211 1 19.2205 24.2871 10.5307
1226 1 22.4398 24.2871 10.5307
1229 1 20.8302 27.0751 10.5307
1244 1 24.0495 27.0751 10.5307
1436 2 20.8302 23.3578 9.87697
1451 2 24.0495 23.3578 9.87697
1454 2 22.4398 26.1458 9.87697
1469 2 25.6591 26.1458 9.87697
1258 1 27.2688 27.0751 5.28591
1119 2 17.6108 21.4991 12.4994
1240 1 25.6591 24.2871 5.28591
1222 1 24.0495 21.4991 5.28591
1408 2 27.2688 27.0751 2.00971
1390 2 25.6591 24.2871 2.00971
1372 2 24.0495 21.4991 2.00971
1287 1 20.8302 23.3578 13.1532
1302 1 24.0495 23.3578 13.1532
1305 1 22.4398 26.1458 13.1532
1320 1 25.6591 26.1458 13.1532
1359 2 20.8302 21.4991 12.4994
1362 2 19.2205 24.2871 12.4994
1377 2 22.4398 24.2871 12.4994
1380 2 20.8302 27.0751 12.4994
1395 2 24.0495 27.0751 12.4994
1437 2 20.8302 23.3578 15.1218
1452 2 24.0495 23.3578 15.1218
1455 2 22.4398 26.1458 15.1218
1470 2 25.6591 26.1458 15.1218
1111 2 20.8302 15.9231 2.00971
1354 2 22.4398 18.7111 2.00971
961 1 20.8302 15.9231 5.28591
1112 2 20.8302 15.9231 7.25455
1204 1 22.4398 18.7111 5.28591
1355 2 22.4398 18.7111 7.25455
962 1 20.8302 15.9231 10.5307
1205 1 22.4398 18.7111 10.5307
1356 2 22.4398 18.7111 12.4994
1113 2 20.8302 15.9231 12.4994
3618 1 11.1722 15.9231 0.0410714
3636 1 12.7819 18.7111 0.0410715
3654 1 14.3915 21.4991 0.0410714
3672 1 16.0012 24.2871 0.0410714
3960 1 27.2688 27.0751 0.0410714
3942 1 25.6591 24.2871 0.0410714
3924 1 24.0495 21.4991 0.0410714
3915 1 17.6108 27.0751 0.0410713
3633 1 14.3915 15.9231 0.0410714
3648 1 17.6109 15.9231 0.0410714
3651 1 16.0012 18.7111 0.0410714
3666 1 19.2205 18.7111 0.0410714
3669 1 17.6109 21.4991 0.0410714
3909 1 20.8302 21.4991 0.0410714
3912 1 19.2205 24.2871 0.0410713
3927 1 22.4398 24.2871 0.0410714
3930 1 20.8302 27.0751 0.0410713
3945 1 24.0495 27.0751 0.0410714
3663 1 20.8302 15.9231 0.0410714
3906 1 22.4398 18.7111 0.0410714
3676 1 9.56255 14.9937 18.398
3691 1 12.7819 14.9937 18.398
3694 1 11.1722 17.7817 18.398
3709 1 14.3915 17.7817 18.398
3712 1 12.7819 20.5697 18.398
3727 1 16.0012 20.5697 18.398
3766 2 11.1722 15.9231 17.7442
3784 2 12.7819 18.7111 17.7442
3616 1 11.1722 15.9231 21.0204
3634 1 12.7819 18.7111 21.0204
3677 1 9.56255 14.9937 23.6428
3692 1 12.7819 14.9937 23.6428
3695 1 11.1722 17.7817 23.6428
3710 1 14.3915 17.7817 23.6428
3713 1 12.7819 20.5697 23.6428
3728 1 16.0012 20.5697 23.6428
3767 2 11.1722 15.9231 22.9891
3785 2 12.7819 18.7111 22.9891
3877 2 16.0012 20.5697 20.3666
3826 2 9.56255 14.9937 20.3666
3841 2 12.7819 14.9937 20.3666
3844 2 11.1722 17.7817 20.3666
3859 2 14.3915 17.7817 20.3666
3862 2 12.7819 20.5697 20.3666
3617 1 11.1722 15.9231 26.2653
3635 1 12.7819 18.7111 26.2653
3827 2 9.56255 14.9937 25.6115
3842 2 12.7819 14.9937 25.6115
3845 2 11.1722 17.7817 25.6115
3860 2 14.3915 17.7817 25.6115
3863 2 12.7819 20.5697 25.6115
3878 2 16.0012 20.5697 25.6115
4110 2 27.2688 27.0751 28.2339
4092 2 25.6591 24.2871 28.2339
3678 1 9.56255 14.9937 28.8877
3693 1 12.7819 14.9937 28.8877
3696 1 11.1722 17.7817 28.8877
3711 1 14.3915 17.7817 28.8877
3714 1 12.7819 20.5697 28.8877
3729 1 16.0012 20.5697 28.8877
3768 2 11.1722 15.9231 28.2339
3879 2 16.0012 20.5697 30.8563
3786 2 12.7819 18.7111 28.2339
3828 2 9.56255 14.9937 30.8563
3843 2 12.7819 14.9937 30.8563
3846 2 11.1722 17.7817 30.8563
3861 2 14.3915 17.7817 30.8563
3864 2 12.7819 20.5697 30.8563
3730 1 14.3915 23.3578 18.398
3745 1 17.6108 23.3578 18.398
3748 1 16.0012 26.1458 18.398
3802 2 14.3915 21.4991 17.7442
3820 2 16.0012 24.2871 17.7442
3988 1 19.2205 26.1458 18.398
4063 2 17.6108 27.0751 17.7442
3652 1 14.3915 21.4991 21.0204
3670 1 16.0012 24.2871 21.0204
3731 1 14.3915 23.3578 23.6428
3746 1 17.6108 23.3578 23.6428
3749 1 16.0012 26.1458 23.6428
3898 2 16.0012 26.1458 20.3666
3803 2 14.3915 21.4991 22.9891
3821 2 16.0012 24.2871 22.9891
3880 2 14.3915 23.3578 20.3666
3895 2 17.6108 23.3578 20.3666
3913 1 17.6108 27.0751 21.0204
3989 1 19.2205 26.1458 23.6428
4064 2 17.6108 27.0751 22.9891
4138 2 19.2205 26.1458 20.3666
3653 1 14.3915 21.4991 26.2653
3671 1 16.0012 24.2871 26.2653
3881 2 14.3915 23.3578 25.6115
3896 2 17.6108 23.3578 25.6115
3899 2 16.0012 26.1458 25.6115
3914 1 17.6108 27.0751 26.2653
4139 2 19.2205 26.1458 25.6115
4074 2 24.0495 21.4991 28.2339
3959 1 27.2688 27.0751 26.2653
3732 1 14.3915 23.3578 28.8877
3747 1 17.6108 23.3578 28.8877
3750 1 16.0012 26.1458 28.8877
3804 2 14.3915 21.4991 28.2339
3822 2 16.0012 24.2871 28.2339
3882 2 14.3915 23.3578 30.8563
3897 2 17.6108 23.3578 30.8563
3900 2 16.0012 26.1458 30.8563
3941 1 25.6591 24.2871 26.2653
3990 1 19.2205 26.1458 28.8877
4065 2 17.6108 27.0751 28.2339
4140 2 19.2205 26.1458 30.8563
3706 1 16.0012 14.9937 18.398
3721 1 19.2205 14.9937 18.398
3724 1 17.6109 17.7817 18.398
3739 1 20.8302 17.7817 18.398
3742 1 19.2205 20.5697 18.398
3781 2 14.3915 15.9231 17.7442
3796 2 17.6109 15.9231 17.7442
3799 2 16.0012 18.7111 17.7442
3814 2 19.2205 18.7111 17.7442
3982 1 22.4398 20.5697 18.398
3631 1 14.3915 15.9231 21.0204
3646 1 17.6109 15.9231 21.0204
3649 1 16.0012 18.7111 21.0204
3664 1 19.2205 18.7111 21.0204
3707 1 16.0012 14.9937 23.6428
3722 1 19.2205 14.9937 23.6428
3725 1 17.6109 17.7817 23.6428
3740 1 20.8302 17.7817 23.6428
3743 1 19.2205 20.5697 23.6428
3782 2 14.3915 15.9231 22.9891
3797 2 17.6109 15.9231 22.9891
3815 2 19.2205 18.7111 22.9891
3856 2 16.0012 14.9937 20.3666
3871 2 19.2205 14.9937 20.3666
3874 2 17.6109 17.7817 20.3666
3892 2 19.2205 20.5697 20.3666
3889 2 20.8302 17.7817 20.3666
3800 2 16.0012 18.7111 22.9891
3983 1 22.4398 20.5697 23.6428
4132 2 22.4398 20.5697 20.3666
3632 1 14.3915 15.9231 26.2653
3647 1 17.6109 15.9231 26.2653
3650 1 16.0012 18.7111 26.2653
3665 1 19.2205 18.7111 26.2653
3857 2 16.0012 14.9937 25.6115
3872 2 19.2205 14.9937 25.6115
3875 2 17.6109 17.7817 25.6115
3890 2 20.8302 17.7817 25.6115
3893 2 19.2205 20.5697 25.6115
4133 2 22.4398 20.5697 25.6115
3923 1 24.0495 21.4991 26.2653
4109 2 27.2688 27.0751 22.9891
4091 2 25.6591 24.2871 22.9891
4073 2 24.0495 21.4991 22.9891
3708 1 16.0012 14.9937 28.8877
3723 1 19.2205 14.9937 28.8877
3726 1 17.6109 17.7817 28.8877
3741 1 20.8302 17.7817 28.8877
3744 1 19.2205 20.5697 28.8877
3798 2 17.6109 15.9231 28.2339
3801 2 16.0012 18.7111 28.2339
3816 2 19.2205 18.7111 28.2339
3858 2 16.0012 14.9937 30.8563
3873 2 19.2205 14.9937 30.8563
3876 2 17.6109 17.7817 30.8563
3894 2 19.2205 20.5697 30.8563
3891 2 20.8302 17.7817 30.8563
3783 2 14.3915 15.9231 28.2339
3984 1 22.4398 20.5697 28.8877
4134 2 22.4398 20.5697 30.8563
3817 2 17.6108 21.4991 17.7442
3985 1 20.8302 23.3578 18.398
4000 1 24.0495 23.3578 18.398
4003 1 22.4398 26.1458 18.398
4018 1 25.6591 26.1458 18.398
4057 2 20.8302 21.4991 17.7442
4060 2 19.2205 24.2871 17.7442
4075 2 22.4398 24.2871 17.7442
4078 2 20.8302 27.0751 17.7442
4093 2 24.0495 27.0751 17.7442
3667 1 17.6108 21.4991 21.0204
3818 2 17.6108 21.4991 22.9891
3907 1 20.8302 21.4991 21.0204
3910 1 19.2205 24.2871 21.0204
3925 1 22.4398 24.2871 21.0204
3928 1 20.8302 27.0751 21.0204
3943 1 24.0495 27.0751 21.0204
3986 1 20.8302 23.3578 23.6428
4001 1 24.0495 23.3578 23.6428
4004 1 22.4398 26.1458 23.6428
4019 1 25.6591 26.1458 23.6428
4058 2 20.8302 21.4991 22.9891
4061 2 19.2205 24.2871 22.9891
4076 2 22.4398 24.2871 22.9891
4094 2 24.0495 27.0751 22.9891
4135 2 20.8302 23.3578 20.3666
4150 2 24.0495 23.3578 20.3666
4153 2 22.4398 26.1458 20.3666
4168 2 25.6591 26.1458 20.3666
4079 2 20.8302 27.0751 22.9891
3668 1 17.6108 21.4991 26.2653
3908 1 20.8302 21.4991 26.2653
3911 1 19.2205 24.2871 26.2653
3926 1 22.4398 24.2871 26.2653
3929 1 20.8302 27.0751 26.2653
3944 1 24.0495 27.0751 26.2653
4136 2 20.8302 23.3578 25.6115
4151 2 24.0495 23.3578 25.6115
4154 2 22.4398 26.1458 25.6115
4169 2 25.6591 26.1458 25.6115
3958 1 27.2688 27.0751 21.0204
3819 2 17.6108 21.4991 28.2339
3940 1 25.6591 24.2871 21.0204
3922 1 24.0495 21.4991 21.0204
4108 2 27.2688 27.0751 17.7442
4090 2 25.6591 24.2871 17.7442
4072 2 24.0495 21.4991 17.7442
3987 1 20.8302 23.3578 28.8877
4002 1 24.0495 23.3578 28.8877
4005 1 22.4398 26.1458 28.8877
4020 1 25.6591 26.1458 28.8877
4059 2 20.8302 21.4991 28.2339
4062 2 19.2205 24.2871 28.2339
4077 2 22.4398 24.2871 28.2339
4080 2 20.8302 27.0751 28.2339
4095 2 24.0495 27.0751 28.2339
4137 2 20.8302 23.3578 30.8563
4152 2 24.0495 23.3578 30.8563
4155 2 22.4398 26.1458 30.8563
4170 2 25.6591 26.1458 30.8563
3811 2 20.8302 15.9231 17.7442
4054 2 22.4398 18.7111 17.7442
3661 1 20.8302 15.9231 21.0204
3812 2 20.8302 15.9231 22.9891
3904 1 22.4398 18.7111 21.0204
4055 2 22.4398 18.7111 22.9891
3662 1 20.8302 15.9231 26.2653
3905 1 22.4398 18.7111 26.2653
4056 2 22.4398 18.7111 28.2339
3813 2 20.8302 15.9231 28.2339
918 1 11.1722 15.9231 15.7756
936 1 12.7819 18.7111 15.7756
954 1 14.3915 21.4991 15.7756
972 1 16.0012 24.2871 15.7756
1260 1 27.2688 27.0751 15.7756
1242 1 25.6591 24.2871 15.7756
1224 1 24.0495 21.4991 15.7756
1215 1 17.6108 27.0751 15.7756
933 1 14.3915 15.9231 15.7756
948 1 17.6109 15.9231 15.7756
951 1 16.0012 18.7111 15.7756
966 1 19.2205 18.7111 15.7756
969 1 17.6108 21.4991 15.7756
1209 1 20.8302 21.4991 15.7756
1212 1 19.2205 24.2871 15.7756
1227 1 22.4398 24.2871 15.7756
1230 1 20.8302 27.0751 15.7756
1245 1 24.0495 27.0751 15.7756
963 1 20.8302 15.9231 15.7756
1206 1 22.4398 18.7111 15.7756
1876 1 17.6108 28.9338 2.66349
1891 1 20.8302 28.9338 2.66349
1894 1 19.2205 31.7218 2.66349
1909 1 22.4398 31.7218 2.66349
1912 1 20.8302 34.5098 2.66349
1927 1 24.0495 34.5098 2.66349
1966 2 19.2205 29.8631 2.00971
1984 2 20.8302 32.6511 2.00971
1816 1 19.2205 29.8631 5.28591
1834 1 20.8302 32.6511 5.28591
1877 1 17.6108 28.9338 7.90833
1892 1 20.8302 28.9338 7.90833
1895 1 19.2205 31.7218 7.90833
1910 1 22.4398 31.7218 7.90833
1913 1 20.8302 34.5098 7.90833