ITEM: TIMESTEP
10115
ITEM: NUMBER OF ATOMS
5400
ITEM: BOX BOUNDS xy xz yz pp pp pp
-1.2274701360000000e-06 7.2434683890000002e+01 2.4144874590000001e+01
-1.7284199339999999e-06 4.1820163800000003e+01 -1.2274701360000000e-06
0.0000000000000000e+00 3.1469031000000001e+01 -1.7284199339999999e-06
ITEM: ATOMS id type x y z
76 1 1.45603 1.12956 2.68914
91 1 4.67535 1.12956 2.68914
94 1 3.06569 3.91757 2.68914
109 1 6.28501 3.91757 2.68914
112 1 4.67535 6.70558 2.68914
127 1 7.89467 6.70558 2.68914
166 2 3.06569 2.0589 2.03536
184 2 4.67535 4.84691 2.03536
16 1 3.06569 2.0589 5.31156
510 2 19.1623 13.2109 12.525
77 1 1.45603 1.12956 7.93398
92 1 4.67535 1.12956 7.93398
95 1 3.06569 3.91757 7.93398
110 1 6.28501 3.91757 7.93398
113 1 4.67535 6.70558 7.93398
128 1 7.89467 6.70558 7.93398
167 2 3.06569 2.0589 7.2802
185 2 4.67535 4.84691 7.2802
277 2 7.89467 6.70558 4.65778
226 2 1.45603 1.12956 4.65778
241 2 4.67535 1.12956 4.65778
244 2 3.06569 3.91757 4.65778
259 2 6.28501 3.91757 4.65778
262 2 4.67535 6.70558 4.65778
17 1 3.06569 2.0589 10.5564
35 1 4.67535 4.84691 10.5564
227 2 1.45603 1.12956 9.90262
242 2 4.67535 1.12956 9.90262
245 2 3.06569 3.91757 9.90262
260 2 6.28501 3.91757 9.90262
263 2 4.67535 6.70558 9.90262
278 2 7.89467 6.70558 9.90262
492 2 17.5526 10.4229 12.525
474 2 15.943 7.63492 12.525
78 1 1.45603 1.12956 13.1788
93 1 4.67535 1.12956 13.1788
96 1 3.06569 3.91757 13.1788
111 1 6.28501 3.91757 13.1788
114 1 4.67534 6.70558 13.1788
129 1 7.89467 6.70558 13.1788
168 2 3.06569 2.0589 12.525
279 2 7.89467 6.70558 15.1475
186 2 4.67535 4.84691 12.525
228 2 1.45603 1.12956 15.1475
243 2 4.67535 1.12956 15.1475
246 2 3.06569 3.91757 15.1475
261 2 6.28501 3.91757 15.1475
264 2 4.67534 6.70558 15.1475
130 1 6.285 9.49359 2.68914
145 1 9.50432 9.49359 2.68914
148 1 7.89466 12.2816 2.68914
202 2 6.28501 7.63492 2.03536
220 2 7.89466 10.4229 2.03536
388 1 11.114 12.2816 2.68914
463 2 9.50432 13.2109 2.03536
52 1 6.28501 7.63492 5.31156
70 1 7.89466 10.4229 5.31156
131 1 6.285 9.49359 7.93398
146 1 9.50432 9.49359 7.93398
149 1 7.89466 12.2816 7.93398
298 2 7.89466 12.2816 4.65778
203 2 6.28501 7.63492 7.2802
221 2 7.89466 10.4229 7.2802
280 2 6.285 9.49359 4.65778
295 2 9.50432 9.49359 4.65778
313 1 9.50432 13.2109 5.31156
389 1 11.114 12.2816 7.93398
464 2 9.50432 13.2109 7.2802
538 2 11.114 12.2816 4.65778
53 1 6.28501 7.63492 10.5564
71 1 7.89466 10.4229 10.5564
281 2 6.285 9.49359 9.90262
296 2 9.50432 9.49359 9.90262
299 2 7.89466 12.2816 9.90262
314 1 9.50432 13.2109 10.5564
539 2 11.114 12.2816 9.90262
3012 1 11.114 10.4229 0.0667189
2766 1 11.114 4.84691 0.0667188
132 1 6.285 9.49359 13.1788
147 1 9.50432 9.49359 13.1788
150 1 7.89466 12.2816 13.1788
204 2 6.285 7.63492 12.525
222 2 7.89466 10.4229 12.525
282 2 6.285 9.49359 15.1475
297 2 9.50432 9.49359 15.1475
300 2 7.89466 12.2816 15.1475
34 1 4.67535 4.84691 5.31156
390 1 11.114 12.2816 13.1788
465 2 9.50432 13.2109 12.525
540 2 11.114 12.2816 15.1475
106 1 7.89467 1.12956 2.68914
121 1 11.114 1.12956 2.68914
124 1 9.50433 3.91757 2.68914
139 1 12.7236 3.91757 2.68914
142 1 11.114 6.70558 2.68914
181 2 6.28501 2.0589 2.03536
196 2 9.50433 2.0589 2.03536
199 2 7.89467 4.84691 2.03536
214 2 11.114 4.84691 2.03536
382 1 14.3333 6.70558 2.68914
31 1 6.28501 2.0589 5.31156
46 1 9.50433 2.0589 5.31156
49 1 7.89467 4.84691 5.31156
64 1 11.114 4.84691 5.31156
107 1 7.89467 1.12956 7.93398
122 1 11.114 1.12956 7.93398
125 1 9.50433 3.91757 7.93398
140 1 12.7236 3.91757 7.93398
143 1 11.114 6.70558 7.93398
182 2 6.28501 2.0589 7.2802
197 2 9.50433 2.0589 7.2802
215 2 11.114 4.84691 7.2802
256 2 7.89467 1.12956 4.65778
271 2 11.114 1.12956 4.65778
274 2 9.50433 3.91757 4.65778
292 2 11.114 6.70558 4.65778
289 2 12.7236 3.91757 4.65778
200 2 7.89467 4.84691 7.2802
383 1 14.3333 6.70558 7.93398
532 2 14.3333 6.70558 4.65778
32 1 6.28501 2.0589 10.5564
47 1 9.50433 2.0589 10.5564
50 1 7.89467 4.84691 10.5564
65 1 11.114 4.84691 10.5564
257 2 7.89467 1.12956 9.90262
272 2 11.114 1.12956 9.90262
275 2 9.50433 3.91757 9.90262
290 2 12.7236 3.91757 9.90262
293 2 11.114 6.70558 9.90262
533 2 14.3333 6.70558 9.90262
2748 1 9.50433 2.0589 0.0667188
3006 1 14.3333 4.84691 0.0667189
359 1 19.1623 13.2109 10.5564
323 1 15.943 7.63492 10.5564
108 1 7.89467 1.12956 13.1788
123 1 11.114 1.12956 13.1788
126 1 9.50433 3.91757 13.1788
141 1 12.7236 3.91757 13.1788
144 1 11.114 6.70558 13.1788
198 2 9.50433 2.0589 12.525
201 2 7.89467 4.84691 12.525
216 2 11.114 4.84691 12.525
258 2 7.89467 1.12956 15.1475
273 2 11.114 1.12956 15.1475
276 2 9.50433 3.91757 15.1475
294 2 11.114 6.70558 15.1475
291 2 12.7236 3.91757 15.1475
183 2 6.28501 2.0589 12.525
384 1 14.3333 6.70558 13.1788
534 2 14.3333 6.70558 15.1475
217 2 9.50433 7.63492 2.03536
385 1 12.7236 9.49359 2.68914
400 1 15.943 9.49359 2.68914
403 1 14.3333 12.2816 2.68914
418 1 17.5526 12.2816 2.68914
457 2 12.7236 7.63492 2.03536
460 2 11.114 10.4229 2.03536
475 2 14.3333 10.4229 2.03536
478 2 12.7236 13.2109 2.03536
493 2 15.943 13.2109 2.03536
67 1 9.50433 7.63492 5.31156
218 2 9.50433 7.63492 7.2802
307 1 12.7236 7.63492 5.31156
310 1 11.114 10.4229 5.31156
325 1 14.3333 10.4229 5.31156
328 1 12.7236 13.2109 5.31156
343 1 15.943 13.2109 5.31156
386 1 12.7236 9.49359 7.93398
401 1 15.943 9.49359 7.93398
404 1 14.3333 12.2816 7.93398
419 1 17.5526 12.2816 7.93398
458 2 12.7236 7.63492 7.2802
461 2 11.114 10.4229 7.2802
476 2 14.3333 10.4229 7.2802
494 2 15.943 13.2109 7.2802
535 2 12.7236 9.49359 4.65778
550 2 15.943 9.49359 4.65778
553 2 14.3333 12.2816 4.65778
568 2 17.5526 12.2816 4.65778
479 2 12.7236 13.2109 7.2802
68 1 9.50433 7.63492 10.5564
308 1 12.7236 7.63492 10.5564
311 1 11.114 10.4229 10.5564
326 1 14.3333 10.4229 10.5564
329 1 12.7236 13.2109 10.5564
344 1 15.943 13.2109 10.5564
536 2 12.7236 9.49359 9.90262
551 2 15.943 9.49359 9.90262
554 2 14.3333 12.2816 9.90262
569 2 17.5526 12.2816 9.90262
341 1 17.5526 10.4229 10.5564
219 2 9.50433 7.63492 12.525
509 2 19.1623 13.2109 7.2802
491 2 17.5526 10.4229 7.2802
473 2 15.943 7.63492 7.2802
358 1 19.1623 13.2109 5.31156
322 1 15.943 7.63492 5.31156
387 1 12.7236 9.49359 13.1788
402 1 15.943 9.49359 13.1788
405 1 14.3333 12.2816 13.1788
420 1 17.5526 12.2816 13.1788
459 2 12.7236 7.63492 12.525
462 2 11.114 10.4229 12.525
477 2 14.3333 10.4229 12.525
480 2 12.7236 13.2109 12.525
495 2 15.943 13.2109 12.525
537 2 12.7236 9.49359 15.1475
552 2 15.943 9.49359 15.1475
555 2 14.3333 12.2816 15.1475
570 2 17.5526 12.2816 15.1475
211 2 12.7237 2.0589 2.03536
454 2 14.3333 4.84691 2.03536
61 1 12.7237 2.0589 5.31156
212 2 12.7237 2.0589 7.2802
304 1 14.3333 4.84691 5.31156
455 2 14.3333 4.84691 7.2802
62 1 12.7237 2.0589 10.5564
305 1 14.3333 4.84691 10.5564
508 2 19.1623 13.2109 2.03536
213 2 12.7237 2.0589 12.525
340 1 17.5526 10.4229 5.31156
456 2 14.3333 4.84691 12.525
472 2 15.943 7.63492 2.03536
490 2 17.5526 10.4229 2.03536
2772 1 7.89466 10.4229 0.0667188
2769 1 9.50433 7.63492 0.0667188
3009 1 12.7236 7.63492 0.0667189
2763 1 12.7237 2.0589 0.0667189
2754 1 6.28501 7.63492 0.0667187
3045 1 15.943 13.2109 0.0667191
3030 1 12.7236 13.2109 0.066719
3024 1 15.943 7.63492 0.066719
2736 1 4.67535 4.84691 0.0667187
3042 1 17.5526 10.4229 0.0667191
3015 1 9.50432 13.2109 0.066719
3060 1 19.1623 13.2109 0.0667191
2733 1 6.28501 2.0589 0.0667187
2751 1 7.89467 4.84691 0.0667188
2718 1 3.06569 2.0589 0.0667187
3027 1 14.3333 10.4229 0.066719
2776 1 1.45603 1.12956 18.4237
2791 1 4.67535 1.12956 18.4237
2794 1 3.06569 3.91757 18.4237
2809 1 6.28501 3.91757 18.4237
2812 1 4.67534 6.70558 18.4237
2827 1 7.89467 6.70558 18.4237
2866 2 3.06569 2.0589 17.7699
2884 2 4.67535 4.84691 17.7699
2716 1 3.06569 2.0589 21.0461
2734 1 4.67535 4.84691 21.0461
2777 1 1.45603 1.12956 23.6685
2792 1 4.67535 1.12956 23.6685
2795 1 3.06569 3.91757 23.6685
2810 1 6.28501 3.91757 23.6685
2813 1 4.67534 6.70558 23.6685
2828 1 7.89466 6.70558 23.6685
2867 2 3.06569 2.0589 23.0147
2885 2 4.67535 4.84691 23.0147
2977 2 7.89466 6.70558 20.3923
2926 2 1.45603 1.12956 20.3923
2941 2 4.67535 1.12956 20.3923
2944 2 3.06569 3.91757 20.3923
2959 2 6.28501 3.91757 20.3923
2962 2 4.67534 6.70558 20.3923
2717 1 3.06569 2.0589 26.2909
2735 1 4.67535 4.84691 26.2909
2927 2 1.45603 1.12956 25.6371
2942 2 4.67535 1.12956 25.6371
2945 2 3.06569 3.91757 25.6371
2960 2 6.28501 3.91757 25.6371
2963 2 4.67534 6.70558 25.6371
2978 2 7.89466 6.70558 25.6371
3210 2 19.1623 13.2109 28.2596
3192 2 17.5526 10.4229 28.2596
2778 1 1.45603 1.12956 28.9133
2793 1 4.67535 1.12956 28.9133
2796 1 3.06569 3.91757 28.9133
2811 1 6.28501 3.91757 28.9133
2814 1 4.67534 6.70558 28.9133
2829 1 7.89466 6.70558 28.9133
2868 2 3.06569 2.05889 28.2596
2979 2 7.89466 6.70558 30.882
2886 2 4.67535 4.84691 28.2596
2928 2 1.45603 1.12956 30.882
2943 2 4.67535 1.12956 30.882
2946 2 3.06569 3.91757 30.882
2961 2 6.28501 3.91757 30.882
2964 2 4.67534 6.70558 30.882
2830 1 6.285 9.49359 18.4237
2845 1 9.50432 9.49359 18.4237
2848 1 7.89466 12.2816 18.4237
2902 2 6.285 7.63492 17.7699
2920 2 7.89466 10.4229 17.7699
3088 1 11.114 12.2816 18.4237
3163 2 9.50432 13.2109 17.7699
2752 1 6.285 7.63492 21.0461
2770 1 7.89466 10.4229 21.0461
2831 1 6.285 9.49359 23.6685
2846 1 9.50432 9.49359 23.6685
2849 1 7.89466 12.2816 23.6685
2998 2 7.89466 12.2816 20.3923
2903 2 6.285 7.63492 23.0147
2921 2 7.89466 10.4229 23.0147
2980 2 6.285 9.49359 20.3923
2995 2 9.50432 9.49359 20.3923
3013 1 9.50432 13.2109 21.0461
3089 1 11.114 12.2816 23.6685
3164 2 9.50432 13.2109 23.0147
3238 2 11.114 12.2816 20.3923
2753 1 6.285 7.63492 26.2909
2771 1 7.89466 10.4229 26.2909
2981 2 6.285 9.49359 25.6371
2996 2 9.50432 9.49359 25.6371
2999 2 7.89466 12.2816 25.6371
3014 1 9.50432 13.2109 26.2909
3239 2 11.114 12.2816 25.6371
3058 1 19.1623 13.2109 21.0461
66 1 11.114 4.84691 15.8012
2832 1 6.285 9.49359 28.9133
2847 1 9.50432 9.49359 28.9133
2850 1 7.89466 12.2816 28.9133
2904 2 6.285 7.63492 28.2596
2922 2 7.89466 10.4229 28.2596
2982 2 6.285 9.49359 30.882
2997 2 9.50432 9.49359 30.882
3000 2 7.89466 12.2816 30.882
48 1 9.50433 2.0589 15.8012
3090 1 11.114 12.2816 28.9133
3165 2 9.50432 13.2109 28.2596
3240 2 11.114 12.2816 30.882
2806 1 7.89467 1.12956 18.4237
2821 1 11.114 1.12956 18.4237
2824 1 9.50433 3.91757 18.4237
2839 1 12.7236 3.91757 18.4237
2842 1 11.114 6.70558 18.4237
2881 2 6.28501 2.0589 17.7699
2896 2 9.50433 2.0589 17.7699
2899 2 7.89467 4.84691 17.7699
2914 2 11.114 4.84691 17.7699
3082 1 14.3333 6.70558 18.4237
2731 1 6.28501 2.0589 21.0461
2746 1 9.50433 2.0589 21.0461
2749 1 7.89467 4.84691 21.0461
2764 1 11.114 4.84691 21.0461
2807 1 7.89467 1.12956 23.6685
2822 1 11.114 1.12956 23.6685
2825 1 9.50433 3.91757 23.6685
2840 1 12.7236 3.91757 23.6685
2843 1 11.114 6.70558 23.6685
2882 2 6.28501 2.0589 23.0147
2897 2 9.50433 2.0589 23.0147
2915 2 11.114 4.84691 23.0147
2956 2 7.89467 1.12956 20.3923
2971 2 11.114 1.12956 20.3923
2974 2 9.50433 3.91757 20.3923
2992 2 11.114 6.70558 20.3923
2989 2 12.7236 3.91757 20.3923
2900 2 7.89467 4.84691 23.0147
3083 1 14.3333 6.70558 23.6685
3232 2 14.3333 6.70558 20.3923
2732 1 6.28501 2.0589 26.2909
2747 1 9.50433 2.0589 26.2909
2750 1 7.89467 4.84691 26.2909
2765 1 11.114 4.84691 26.2909
2957 2 7.89467 1.12956 25.6371
2972 2 11.114 1.12956 25.6371
2975 2 9.50433 3.91757 25.6371
2990 2 12.7236 3.91757 25.6371
2993 2 11.114 6.70558 25.6371
3233 2 14.3333 6.70558 25.6371
51 1 7.89467 4.84691 15.8012
3174 2 15.943 7.63492 28.2596
33 1 6.28501 2.0589 15.8012
18 1 3.06569 2.0589 15.8012
2808 1 7.89467 1.12956 28.9133
2823 1 11.114 1.12956 28.9133
2826 1 9.50433 3.91757 28.9133
2841 1 12.7236 3.91757 28.9133
2844 1 11.114 6.70558 28.9133
2898 2 9.50433 2.05889 28.2596
2901 2 7.89467 4.84691 28.2596
2916 2 11.114 4.84691 28.2596
2958 2 7.89467 1.12956 30.882
2973 2 11.114 1.12956 30.882
2976 2 9.50433 3.91757 30.882
2994 2 11.114 6.70558 30.882
2991 2 12.7236 3.91757 30.882
2883 2 6.28501 2.05889 28.2596
3084 1 14.3333 6.70558 28.9133
3234 2 14.3333 6.70558 30.882
2917 2 9.50433 7.63492 17.7699
3085 1 12.7236 9.49359 18.4237
3100 1 15.943 9.49359 18.4237
3103 1 14.3333 12.2816 18.4237
3118 1 17.5526 12.2816 18.4237
3157 2 12.7236 7.63492 17.7699
3160 2 11.114 10.4229 17.7699
3175 2 14.3333 10.4229 17.7699
3178 2 12.7236 13.2109 17.7699
3193 2 15.943 13.2109 17.7699
2767 1 9.50432 7.63492 21.0461
2918 2 9.50432 7.63492 23.0147
3007 1 12.7236 7.63492 21.0461
3010 1 11.114 10.4229 21.0461
3025 1 14.3333 10.4229 21.0461
3028 1 12.7236 13.2109 21.0461
3043 1 15.943 13.2109 21.0461
3086 1 12.7236 9.49359 23.6685
3101 1 15.943 9.49359 23.6685
3104 1 14.3333 12.2816 23.6685
3119 1 17.5526 12.2816 23.6685
3158 2 12.7236 7.63492 23.0147
3161 2 11.114 10.4229 23.0147
3176 2 14.3333 10.4229 23.0147
3194 2 15.943 13.2109 23.0147
3235 2 12.7236 9.49359 20.3923
3250 2 15.943 9.49359 20.3923
3253 2 14.3333 12.2816 20.3923
3268 2 17.5526 12.2816 20.3923
3179 2 12.7236 13.2109 23.0147
2768 1 9.50432 7.63492 26.2909
3008 1 12.7236 7.63492 26.2909
3011 1 11.114 10.4229 26.2909
3026 1 14.3333 10.4229 26.2909
3029 1 12.7236 13.2109 26.2909
3044 1 15.943 13.2109 26.2909
3236 2 12.7236 9.49359 25.6371
3251 2 15.943 9.49359 25.6371
3254 2 14.3333 12.2816 25.6371
3269 2 17.5526 12.2816 25.6371
3059 1 19.1623 13.2109 26.2909
2919 2 9.50432 7.63492 28.2596
3041 1 17.5526 10.4229 26.2909
63 1 12.7236 2.0589 15.8012
3040 1 17.5526 10.4229 21.0461
3023 1 15.943 7.63492 26.2909
3209 2 19.1623 13.2109 23.0147
3087 1 12.7236 9.49359 28.9133
3102 1 15.943 9.49359 28.9133
3105 1 14.3333 12.2816 28.9133
3120 1 17.5526 12.2816 28.9133
3159 2 12.7236 7.63492 28.2596
3162 2 11.114 10.4229 28.2596
3177 2 14.3333 10.4229 28.2596
3180 2 12.7236 13.2109 28.2596
3195 2 15.943 13.2109 28.2596
3237 2 12.7236 9.49359 30.882
3252 2 15.943 9.49359 30.882
3255 2 14.3333 12.2816 30.882
3270 2 17.5526 12.2816 30.882
2911 2 12.7236 2.0589 17.7699
3154 2 14.3333 4.84691 17.7699
2761 1 12.7236 2.0589 21.0461
2912 2 12.7236 2.0589 23.0147
3004 1 14.3333 4.84691 21.0461
3155 2 14.3333 4.84691 23.0147
2762 1 12.7236 2.0589 26.2909
3005 1 14.3333 4.84691 26.2909
3191 2 17.5526 10.4229 23.0147
2913 2 12.7236 2.05889 28.2596
3173 2 15.943 7.63492 23.0147
3156 2 14.3333 4.84691 28.2596
3172 2 15.943 7.63492 17.7699
3190 2 17.5526 10.4229 17.7699
3208 2 19.1623 13.2109 17.7699
3022 1 15.943 7.63492 21.0461
69 1 9.50433 7.63492 15.8012
306 1 14.3333 4.84691 15.8012
312 1 11.114 10.4229 15.8012
360 1 19.1623 13.2109 15.8012
345 1 15.943 13.2109 15.8012
327 1 14.3333 10.4229 15.8012
342 1 17.5526 10.4229 15.8012
309 1 12.7236 7.63492 15.8012
330 1 12.7236 13.2109 15.8012
36 1 4.67535 4.84691 15.8012
54 1 6.285 7.63492 15.8012
72 1 7.89466 10.4229 15.8012
315 1 9.50432 13.2109 15.8012
324 1 15.943 7.63492 15.8012
976 1 9.50432 15.0696 2.68914
991 1 12.7236 15.0696 2.68914
994 1 11.114 17.8576 2.68914
1009 1 14.3333 17.8576 2.68914
1012 1 12.7236 20.6456 2.68914
1027 1 15.943 20.6456 2.68914
1066 2 11.114 15.999 2.03536
1084 2 12.7236 18.787 2.03536
916 1 11.114 15.999 5.31156
934 1 12.7236 18.787 5.31156
977 1 9.50432 15.0696 7.93398
992 1 12.7236 15.0696 7.93398
995 1 11.114 17.8576 7.93398
1010 1 14.3333 17.8576 7.93398
1013 1 12.7236 20.6456 7.93398
1028 1 15.943 20.6456 7.93398
1067 2 11.114 15.999 7.2802
1085 2 12.7236 18.787 7.2802
1177 2 15.943 20.6456 4.65778
1126 2 9.50432 15.0696 4.65778
1141 2 12.7236 15.0696 4.65778
1144 2 11.114 17.8576 4.65778
1159 2 14.3333 17.8576 4.65778
1162 2 12.7236 20.6456 4.65778
917 1 11.114 15.999 10.5564
935 1 12.7236 18.787 10.5564
1127 2 9.50432 15.0696 9.90262
1142 2 12.7236 15.0696 9.90262
1145 2 11.114 17.8576 9.90262
1160 2 14.3333 17.8576 9.90262
1163 2 12.7236 20.6456 9.90262
1178 2 15.943 20.6456 9.90262
1410 2 27.2106 27.151 12.525
1392 2 25.6009 24.363 12.525
978 1 9.50432 15.0696 13.1788
993 1 12.7236 15.0696 13.1788
996 1 11.114 17.8576 13.1788
1011 1 14.3333 17.8576 13.1788
1014 1 12.7236 20.6456 13.1788
1029 1 15.943 20.6456 13.1788
1068 2 11.114 15.999 12.525
1179 2 15.943 20.6456 15.1475
1086 2 12.7236 18.787 12.525
1128 2 9.50432 15.0696 15.1475
1143 2 12.7236 15.0696 15.1475
1146 2 11.114 17.8576 15.1475
1161 2 14.3333 17.8576 15.1475
1164 2 12.7236 20.6456 15.1475
1030 1 14.3333 23.4336 2.68914
1045 1 17.5526 23.4336 2.68914
1048 1 15.943 26.2217 2.68914
1102 2 14.3333 21.575 2.03536
1120 2 15.943 24.363 2.03536
1288 1 19.1623 26.2217 2.68914
1363 2 17.5526 27.151 2.03536
952 1 14.3333 21.575 5.31156
970 1 15.943 24.363 5.31156
1031 1 14.3333 23.4336 7.93398
1046 1 17.5526 23.4336 7.93398
1049 1 15.943 26.2217 7.93398
1198 2 15.943 26.2217 4.65778
1103 2 14.3333 21.575 7.2802
1121 2 15.943 24.363 7.2802
1180 2 14.3333 23.4336 4.65778
1195 2 17.5526 23.4336 4.65778
1213 1 17.5526 27.151 5.31156
1289 1 19.1623 26.2217 7.93398
1364 2 17.5526 27.151 7.2802
1438 2 19.1623 26.2217 4.65778
953 1 14.3333 21.575 10.5564
971 1 15.943 24.363 10.5564
1181 2 14.3333 23.4336 9.90262
1196 2 17.5526 23.4336 9.90262
1199 2 15.943 26.2217 9.90262
1214 1 17.5526 27.151 10.5564
1439 2 19.1623 26.2217 9.90262
1259 1 27.2106 27.151 10.5564
1241 1 25.6009 24.363 10.5564
1032 1 14.3333 23.4336 13.1788
1047 1 17.5526 23.4336 13.1788
1050 1 15.943 26.2217 13.1788
1104 2 14.3333 21.575 12.525
1122 2 15.943 24.363 12.525
1182 2 14.3333 23.4336 15.1475
1197 2 17.5526 23.4336 15.1475
1200 2 15.943 26.2217 15.1475
1223 1 23.9913 21.575 10.5564
1290 1 19.1623 26.2217 13.1788
1365 2 17.5526 27.151 12.525
1440 2 19.1623 26.2217 15.1475
1006 1 15.943 15.0696 2.68914
1021 1 19.1623 15.0696 2.68914
1024 1 17.5526 17.8576 2.68914
1039 1 20.7719 17.8576 2.68914
1042 1 19.1623 20.6456 2.68914
1081 2 14.3333 15.999 2.03536
1096 2 17.5526 15.999 2.03536
1099 2 15.943 18.787 2.03536
1114 2 19.1623 18.787 2.03536
1282 1 22.3816 20.6456 2.68914
931 1 14.3333 15.999 5.31156
946 1 17.5526 15.999 5.31156
949 1 15.943 18.787 5.31156
964 1 19.1623 18.787 5.31156
1007 1 15.943 15.0696 7.93398
1022 1 19.1623 15.0696 7.93398
1025 1 17.5526 17.8576 7.93398
1040 1 20.7719 17.8576 7.93398
1043 1 19.1623 20.6456 7.93398
1082 2 14.3333 15.999 7.2802
1097 2 17.5526 15.999 7.2802
1115 2 19.1623 18.787 7.2802
1156 2 15.943 15.0696 4.65778
1171 2 19.1623 15.0696 4.65778
1174 2 17.5526 17.8576 4.65778
1192 2 19.1623 20.6456 4.65778
1189 2 20.7719 17.8576 4.65778
1100 2 15.943 18.787 7.2802
1283 1 22.3816 20.6456 7.93398
1432 2 22.3816 20.6456 4.65778
932 1 14.3333 15.999 10.5564
947 1 17.5526 15.999 10.5564
950 1 15.943 18.787 10.5564
965 1 19.1623 18.787 10.5564
1157 2 15.943 15.0696 9.90262
1172 2 19.1623 15.0696 9.90262
1175 2 17.5526 17.8576 9.90262
1190 2 20.7719 17.8576 9.90262
1193 2 19.1623 20.6456 9.90262
1433 2 22.3816 20.6456 9.90262
1374 2 23.9913 21.575 12.525
1409 2 27.2106 27.151 7.2802
3651 1 15.943 18.787 0.0667191
1391 2 25.6009 24.363 7.2802
1008 1 15.943 15.0696 13.1788
1023 1 19.1623 15.0696 13.1788
1026 1 17.5526 17.8576 13.1788
1041 1 20.7719 17.8576 13.1788
1044 1 19.1623 20.6456 13.1788
1098 2 17.5526 15.999 12.525
1101 2 15.943 18.787 12.525
1116 2 19.1623 18.787 12.525
1158 2 15.943 15.0696 15.1475
1173 2 19.1623 15.0696 15.1475
1176 2 17.5526 17.8576 15.1475
1194 2 19.1623 20.6456 15.1475
1191 2 20.7719 17.8576 15.1475
1083 2 14.3333 15.999 12.525
1284 1 22.3816 20.6456 13.1788
1434 2 22.3816 20.6456 15.1475
1117 2 17.5526 21.575 2.03536
1285 1 20.7719 23.4336 2.68914
1300 1 23.9913 23.4336 2.68914
1303 1 22.3816 26.2217 2.68914
1318 1 25.6009 26.2217 2.68914
1357 2 20.7719 21.575 2.03536
1360 2 19.1623 24.363 2.03536
1375 2 22.3816 24.363 2.03536
1378 2 20.7719 27.151 2.03536
1393 2 23.9913 27.151 2.03536
967 1 17.5526 21.575 5.31156
1118 2 17.5526 21.575 7.2802
1207 1 20.7719 21.575 5.31156
1210 1 19.1623 24.363 5.31156
1225 1 22.3816 24.363 5.31156
1228 1 20.7719 27.151 5.31156
1243 1 23.9913 27.151 5.31156
1286 1 20.7719 23.4336 7.93398
1301 1 23.9913 23.4336 7.93398
1304 1 22.3816 26.2217 7.93398
1319 1 25.6009 26.2217 7.93398
1358 2 20.7719 21.575 7.2802
1361 2 19.1623 24.363 7.2802
1376 2 22.3816 24.363 7.2802
1394 2 23.9913 27.151 7.2802
1435 2 20.7719 23.4336 4.65778
1450 2 23.9913 23.4336 4.65778
1453 2 22.3816 26.2217 4.65778
1468 2 25.6009 26.2217 4.65778
1379 2 20.7719 27.151 7.2802
968 1 17.5526 21.575 10.5564
1208 1 20.7719 21.575 10.5564
1211 1 19.1623 24.363 10.5564
1226 1 22.3816 24.363 10.5564
1229 1 20.7719 27.151 10.5564
1244 1 23.9913 27.151 10.5564
1436 2 20.7719 23.4336 9.90262
1451 2 23.9913 23.4336 9.90262
1454 2 22.3816 26.2217 9.90262
1469 2 25.6009 26.2217 9.90262
1373 2 23.9913 21.575 7.2802
1119 2 17.5526 21.575 12.525
1258 1 27.2106 27.151 5.31156
1240 1 25.6009 24.363 5.31156
1222 1 23.9913 21.575 5.31156
1408 2 27.2106 27.151 2.03536
1390 2 25.6009 24.363 2.03536
1287 1 20.7719 23.4336 13.1788
1302 1 23.9913 23.4336 13.1788
1305 1 22.3816 26.2217 13.1788
1320 1 25.6009 26.2217 13.1788
1359 2 20.7719 21.575 12.525
1362 2 19.1623 24.363 12.525
1377 2 22.3816 24.363 12.525
1380 2 20.7719 27.151 12.525
1395 2 23.9913 27.151 12.525
1437 2 20.7719 23.4336 15.1475
1452 2 23.9913 23.4336 15.1475
1455 2 22.3816 26.2217 15.1475
1470 2 25.6009 26.2217 15.1475
1111 2 20.7719 15.999 2.03536
1354 2 22.3816 18.787 2.03536
961 1 20.7719 15.999 5.31156
1112 2 20.7719 15.999 7.2802
1204 1 22.3816 18.787 5.31156
1355 2 22.3816 18.787 7.2802
962 1 20.7719 15.999 10.5564
1205 1 22.3816 18.787 10.5564
1372 2 23.9913 21.575 2.03536
1113 2 20.7719 15.999 12.525
1356 2 22.3816 18.787 12.525
3636 1 12.7236 18.787 0.0667191
3633 1 14.3333 15.999 0.0667191
3648 1 17.5526 15.999 0.0667191
3618 1 11.114 15.999 0.0667191
3654 1 14.3333 21.575 0.066719
3672 1 15.943 24.363 0.0667189
3915 1 17.5526 27.151 0.0667189
3666 1 19.1623 18.787 0.066719
3669 1 17.5526 21.575 0.066719
3909 1 20.7719 21.575 0.066719
3912 1 19.1623 24.363 0.0667189
3927 1 22.3816 24.363 0.0667189
3930 1 20.7719 27.151 0.066719
3945 1 23.9913 27.151 0.066719
3663 1 20.7719 15.999 0.0667191
3906 1 22.3816 18.787 0.066719
3924 1 23.9913 21.575 0.0667189
3942 1 25.6009 24.363 0.066719
3960 1 27.2106 27.151 0.0667191
3676 1 9.50432 15.0696 18.4237
3691 1 12.7236 15.0696 18.4237
3694 1 11.114 17.8576 18.4237
3709 1 14.3333 17.8576 18.4237
3712 1 12.7236 20.6456 18.4237
3727 1 15.943 20.6456 18.4237
3766 2 11.114 15.999 17.7699
3784 2 12.7236 18.787 17.7699
3616 1 11.114 15.9989 21.0461
3634 1 12.7236 18.787 21.0461
3677 1 9.50432 15.0696 23.6685
3692 1 12.7236 15.0696 23.6685
3695 1 11.114 17.8576 23.6685
3710 1 14.3333 17.8576 23.6685
3713 1 12.7236 20.6456 23.6685
3728 1 15.943 20.6456 23.6685
3767 2 11.114 15.9989 23.0147
3785 2 12.7236 18.787 23.0147
3877 2 15.943 20.6456 20.3923
3826 2 9.50432 15.0696 20.3923
3841 2 12.7236 15.0696 20.3923
3844 2 11.114 17.8576 20.3923
3859 2 14.3333 17.8576 20.3923
3862 2 12.7236 20.6456 20.3923
3617 1 11.114 15.9989 26.2909
3635 1 12.7236 18.787 26.2909
3827 2 9.50432 15.0696 25.6371
3842 2 12.7236 15.0696 25.6371
3845 2 11.114 17.8576 25.6371
3860 2 14.3333 17.8576 25.6371
3863 2 12.7236 20.6456 25.6371
3878 2 15.943 20.6456 25.6371
1206 1 22.3816 18.787 15.8012
954 1 14.3333 21.575 15.8012
3678 1 9.50432 15.0696 28.9133
3693 1 12.7236 15.0696 28.9133
3696 1 11.114 17.8576 28.9133
3711 1 14.3333 17.8576 28.9133
3714 1 12.7236 20.6456 28.9133
3729 1 15.943 20.6456 28.9133
3768 2 11.114 15.9989 28.2596
3879 2 15.943 20.6456 30.882
3786 2 12.7236 18.787 28.2596
3828 2 9.50432 15.0696 30.882
3843 2 12.7236 15.0696 30.882
3846 2 11.114 17.8576 30.882
3861 2 14.3333 17.8576 30.882
3864 2 12.7236 20.6456 30.882
3730 1 14.3333 23.4336 18.4237
3745 1 17.5526 23.4336 18.4237
3748 1 15.943 26.2217 18.4237
3802 2 14.3333 21.575 17.7699
3820 2 15.943 24.363 17.7699
3988 1 19.1623 26.2217 18.4237
4063 2 17.5526 27.151 17.7699
3652 1 14.3333 21.575 21.0461
3670 1 15.943 24.363 21.0461
3731 1 14.3333 23.4336 23.6685
3746 1 17.5526 23.4336 23.6685
3749 1 15.943 26.2217 23.6685
3898 2 15.943 26.2217 20.3923
3803 2 14.3333 21.575 23.0147
3821 2 15.943 24.363 23.0147
3880 2 14.3333 23.4336 20.3923
3895 2 17.5526 23.4336 20.3923
3913 1 17.5526 27.151 21.0461
3989 1 19.1623 26.2217 23.6685
4064 2 17.5526 27.151 23.0147
4138 2 19.1623 26.2217 20.3923
3653 1 14.3333 21.575 26.2909
3671 1 15.943 24.363 26.2909
3881 2 14.3333 23.4336 25.6371
3896 2 17.5526 23.4336 25.6371
3899 2 15.943 26.2217 25.6371
3914 1 17.5526 27.151 26.2909
4139 2 19.1623 26.2217 25.6371
963 1 20.7719 15.999 15.8012
1245 1 23.9913 27.151 15.8012
3732 1 14.3333 23.4336 28.9133
3747 1 17.5526 23.4336 28.9133
3750 1 15.943 26.2217 28.9133
3804 2 14.3333 21.575 28.2596
3822 2 15.943 24.363 28.2596
3882 2 14.3333 23.4336 30.882
3897 2 17.5526 23.4336 30.882
3900 2 15.943 26.2217 30.882
1230 1 20.7719 27.151 15.8012
3990 1 19.1623 26.2217 28.9133
4065 2 17.5526 27.151 28.2596
4140 2 19.1623 26.2217 30.882
3706 1 15.943 15.0696 18.4237
3721 1 19.1623 15.0696 18.4237
3724 1 17.5526 17.8576 18.4237
3739 1 20.7719 17.8576 18.4237
3742 1 19.1623 20.6456 18.4237
3781 2 14.3333 15.999 17.7699
3796 2 17.5526 15.999 17.7699
3799 2 15.943 18.787 17.7699
3814 2 19.1623 18.787 17.7699
3982 1 22.3816 20.6456 18.4237
3631 1 14.3333 15.9989 21.0461
3646 1 17.5526 15.9989 21.0461
3649 1 15.943 18.787 21.0461
3664 1 19.1623 18.787 21.0461
3707 1 15.943 15.0696 23.6685
3722 1 19.1623 15.0696 23.6685
3725 1 17.5526 17.8576 23.6685
3740 1 20.7719 17.8576 23.6685
3743 1 19.1623 20.6456 23.6685
3782 2 14.3333 15.9989 23.0147
3797 2 17.5526 15.9989 23.0147
3815 2 19.1623 18.787 23.0147
3856 2 15.943 15.0696 20.3923
3871 2 19.1623 15.0696 20.3923
3874 2 17.5526 17.8576 20.3923
3892 2 19.1623 20.6456 20.3923
3889 2 20.7719 17.8576 20.3923
3800 2 15.943 18.787 23.0147
3983 1 22.3816 20.6456 23.6685
4132 2 22.3816 20.6456 20.3923
3632 1 14.3333 15.9989 26.2909
3647 1 17.5526 15.9989 26.2909
3650 1 15.943 18.787 26.2909
3665 1 19.1623 18.787 26.2909
3857 2 15.943 15.0696 25.6371
3872 2 19.1623 15.0696 25.6371
3875 2 17.5526 17.8576 25.6371
3890 2 20.7719 17.8576 25.6371
3893 2 19.1623 20.6456 25.6371
4133 2 22.3816 20.6456 25.6371
951 1 15.943 18.787 15.8012
948 1 17.5526 15.999 15.8012
4110 2 27.2106 27.151 28.2596
1227 1 22.3816 24.363 15.8012
3708 1 15.943 15.0696 28.9133
3723 1 19.1623 15.0696 28.9133
3726 1 17.5526 17.8576 28.9133
3741 1 20.7719 17.8576 28.9133
3744 1 19.1623 20.6456 28.9133
3798 2 17.5526 15.9989 28.2596
3801 2 15.943 18.787 28.2596
3816 2 19.1623 18.787 28.2596
3858 2 15.943 15.0696 30.882
3873 2 19.1623 15.0696 30.882
3876 2 17.5526 17.8576 30.882
3894 2 19.1623 20.6456 30.882
3891 2 20.7719 17.8576 30.882
3783 2 14.3333 15.9989 28.2596
3984 1 22.3816 20.6456 28.9133
4134 2 22.3816 20.6456 30.882
3817 2 17.5526 21.575 17.7699
3985 1 20.7719 23.4336 18.4237
4000 1 23.9913 23.4336 18.4237
4003 1 22.3816 26.2217 18.4237
4018 1 25.6009 26.2217 18.4237
4057 2 20.7719 21.575 17.7699
4060 2 19.1623 24.363 17.7699
4075 2 22.3816 24.363 17.7699
4078 2 20.7719 27.151 17.7699
4093 2 23.9913 27.151 17.7699
3667 1 17.5526 21.575 21.0461
3818 2 17.5526 21.575 23.0147
3907 1 20.7719 21.575 21.0461
3910 1 19.1623 24.363 21.0461
3925 1 22.3816 24.363 21.0461
3928 1 20.7719 27.151 21.0461
3943 1 23.9913 27.151 21.0461
3986 1 20.7719 23.4336 23.6685
4001 1 23.9913 23.4336 23.6685
4004 1 22.3816 26.2217 23.6685
4019 1 25.6009 26.2217 23.6685
4058 2 20.7719 21.575 23.0147
4061 2 19.1623 24.363 23.0147
4076 2 22.3816 24.363 23.0147
4094 2 23.9913 27.151 23.0147
4135 2 20.7719 23.4336 20.3923
4150 2 23.9913 23.4336 20.3923
4153 2 22.3816 26.2217 20.3923
4168 2 25.6009 26.2217 20.3923
4079 2 20.7719 27.151 23.0147
3668 1 17.5526 21.575 26.2909
3908 1 20.7719 21.575 26.2909
3911 1 19.1623 24.363 26.2909
3926 1 22.3816 24.363 26.2909
3929 1 20.7719 27.151 26.2909
3944 1 23.9913 27.151 26.2909
4136 2 20.7719 23.4336 25.6371
4151 2 23.9913 23.4336 25.6371
4154 2 22.3816 26.2217 25.6371
4169 2 25.6009 26.2217 25.6371
1212 1 19.1623 24.363 15.8012
3819 2 17.5526 21.575 28.2596
1209 1 20.7719 21.575 15.8012
969 1 17.5526 21.575 15.8012
966 1 19.1623 18.787 15.8012
1260 1 27.2106 27.151 15.8012
1215 1 17.5526 27.151 15.8012
3987 1 20.7719 23.4336 28.9133
4002 1 23.9913 23.4336 28.9133
4005 1 22.3816 26.2217 28.9133
4020 1 25.6009 26.2217 28.9133
4059 2 20.7719 21.575 28.2596
4062 2 19.1623 24.363 28.2596
4077 2 22.3816 24.363 28.2596
4080 2 20.7719 27.151 28.2596
4095 2 23.9913 27.151 28.2596
4137 2 20.7719 23.4336 30.882
4152 2 23.9913 23.4336 30.882
4155 2 22.3816 26.2217 30.882
4170 2 25.6009 26.2217 30.882
3811 2 20.7719 15.999 17.7699
4054 2 22.3816 18.787 17.7699
3661 1 20.7719 15.999 21.0461
3812 2 20.7719 15.9989 23.0147
3904 1 22.3816 18.787 21.0461
4055 2 22.3816 18.787 23.0147
3662 1 20.7719 15.9989 26.2909
3905 1 22.3816 18.787 26.2909
972 1 15.943 24.363 15.8012
3813 2 20.7719 15.9989 28.2596
1224 1 23.9913 21.575 15.8012
4056 2 22.3816 18.787 28.2596
4072 2 23.9913 21.575 17.7699
4090 2 25.6009 24.363 17.7699
4108 2 27.2106 27.151 17.7699
3922 1 23.9913 21.575 21.0461
3940 1 25.6009 24.363 21.0461
3958 1 27.2106 27.151 21.0461
4073 2 23.9913 21.575 23.0147
4091 2 25.6009 24.363 23.0147
4109 2 27.2106 27.151 23.0147
3923 1 23.9913 21.575 26.2909
3941 1 25.6009 24.363 26.2909
3959 1 27.2106 27.151 26.2909
4092 2 25.6009 24.363 28.2596
4074 2 23.9913 21.575 28.2596
1242 1 25.6009 24.363 15.8012
918 1 11.114 15.999 15.8012
936 1 12.7236 18.787 15.8012
933 1 14.3333 15.999 15.8012
1876 1 17.5526 29.0097 2.68914
1891 1 20.7719 29.0097 2.68914
1894 1 19.1623 31.7977 2.68914
1909 1 22.3816 31.7977 2.68914
1912 1 20.7719 34.5857 2.68914
1927 1 23.9912 34.5857 2.68914
1966 2 19.1623 29.939 2.03536
1984 2 20.7719 32.727 2.03536
1816 1 19.1623 29.939 5.31156
1834 1 20.7719 32.727 5.31156
1877 1 17.5526 29.0097 7.93398
1892 1 20.7719 29.0097 7.93398
1895 1 19.1623 31.7977 7.93398
1910 1 22.3816 31.7977 7.93398
1913 1 20.7719 34.5857 7.93398
1928 1 23.9912 34.5857 7.93398
1967 2 19.1623 29.939 7.2802
1985 2 20.7719 32.727 7.2802
2077 2 23.9912 34.5857 4.65778
2026 2 17.5526 29.0097 4.65778
2041 2 20.7719 29.0097 4.65778
2044 2 19.1623 31.7977 4.65778
2059 2 22.3816 31.7977 4.65778
2062 2 20.7719 34.5857 4.65778
1817 1 19.1623 29.939 10.5564