Generate lammps data file from poscar

300  atoms
2  atom types

0.00000000e+00  1.60966031e+01  xlo xhi
0.00000000e+00  1.39400546e+01  ylo yhi
0.00000000e+00  1.57345155e+01  zlo zhi
8.04829153e+00  -6.13735068e-07  -8.64209967e-07 xy xz yz

Atoms

1 1 -1.18784599e-06 1.85867302e+00 5.24030747e+00
2 1 -1.42643991e-06 1.85867384e+00 1.04851457e+01
3 1 -1.66029624e-06 1.85867238e+00 1.57299846e+01
4 1 -1.60966310e+00 4.64668343e+00 5.24030848e+00
5 1 -1.60966344e+00 4.64668409e+00 1.04851458e+01
6 1 -1.60966304e+00 4.64668300e+00 1.57299851e+01
7 1 -3.21932519e+00 7.43469467e+00 5.24030731e+00
8 1 -3.21932498e+00 7.43469457e+00 1.04851461e+01
9 1 -3.21932553e+00 7.43469351e+00 1.57299851e+01
10 1 -4.82898855e+00 1.02227057e+01 5.24030822e+00
11 1 -4.82898867e+00 1.02227053e+01 1.04851448e+01
12 1 -4.82898836e+00 1.02227053e+01 1.57299837e+01
13 1 -6.43865057e+00 1.30107165e+01 5.24030738e+00
14 1 -6.43865046e+00 1.30107162e+01 1.04851460e+01
15 1 -6.43865036e+00 1.30107161e+01 1.57299847e+01
16 1 3.21932105e+00 1.85867293e+00 5.24030693e+00
17 1 3.21932062e+00 1.85867271e+00 1.04851461e+01
18 1 3.21931893e+00 1.85867237e+00 1.57299851e+01
19 1 1.60965723e+00 4.64668365e+00 5.24030741e+00
20 1 1.60965663e+00 4.64668345e+00 1.04851460e+01
21 1 1.60965655e+00 4.64668375e+00 1.57299847e+01
22 1 -4.70994757e-06 7.43469557e+00 5.24030721e+00
23 1 -4.05000663e-06 7.43469430e+00 1.04851456e+01
24 1 -5.47980370e-06 7.43469390e+00 1.57299841e+01
25 1 -1.60966704e+00 1.02227062e+01 5.24030733e+00
26 1 -1.60966784e+00 1.02227048e+01 1.04851467e+01
27 1 -1.60966712e+00 1.02227051e+01 1.57299856e+01
28 1 -3.21932961e+00 1.30107162e+01 5.24030724e+00
29 1 -3.21932994e+00 1.30107163e+01 1.04851462e+01
30 1 -3.21932981e+00 1.30107156e+01 1.57299845e+01
31 1 6.43864115e+00 1.85867272e+00 5.24030720e+00
32 1 6.43864058e+00 1.85867321e+00 1.04851460e+01
33 1 6.43863982e+00 1.85867203e+00 1.57299862e+01
34 1 4.82897868e+00 4.64668428e+00 5.24030712e+00
35 1 4.82897759e+00 4.64668389e+00 1.04851472e+01
36 1 4.82897791e+00 4.64668386e+00 1.57299841e+01
37 1 3.21931626e+00 7.43469459e+00 5.24030715e+00
38 1 3.21931556e+00 7.43469471e+00 1.04851458e+01
39 1 3.21931568e+00 7.43469412e+00 1.57299835e+01
40 1 1.60965371e+00 1.02227062e+01 5.24030652e+00
41 1 1.60965290e+00 1.02227051e+01 1.04851457e+01
42 1 1.60965270e+00 1.02227053e+01 1.57299847e+01
43 1 -8.58251742e-06 1.30107166e+01 5.24030723e+00
44 1 -8.83542884e-06 1.30107163e+01 1.04851457e+01
45 1 -8.66442641e-06 1.30107162e+01 1.57299842e+01
46 1 9.65796060e+00 1.85867261e+00 5.24030692e+00
47 1 9.65796074e+00 1.85867219e+00 1.04851462e+01
48 1 9.65796122e+00 1.85867268e+00 1.57299846e+01
49 1 8.04829945e+00 4.64668429e+00 5.24030794e+00
50 1 8.04829900e+00 4.64668389e+00 1.04851461e+01
51 1 8.04829897e+00 4.64668323e+00 1.57299853e+01
52 1 6.43863594e+00 7.43469475e+00 5.24030736e+00
53 1 6.43863582e+00 7.43469498e+00 1.04851452e+01
54 1 6.43863550e+00 7.43469340e+00 1.57299839e+01
55 1 4.82897384e+00 1.02227057e+01 5.24030758e+00
56 1 4.82897434e+00 1.02227054e+01 1.04851455e+01
57 1 4.82897345e+00 1.02227052e+01 1.57299849e+01
58 1 3.21931171e+00 1.30107169e+01 5.24030646e+00
59 1 3.21931168e+00 1.30107161e+01 1.04851459e+01
60 1 3.21931136e+00 1.30107164e+01 1.57299845e+01
61 1 1.28772811e+01 1.85867266e+00 5.24030744e+00
62 1 1.28772813e+01 1.85867229e+00 1.04851462e+01
63 1 1.28772808e+01 1.85867244e+00 1.57299847e+01
64 1 1.12676191e+01 4.64668385e+00 5.24030708e+00
65 1 1.12676191e+01 4.64668363e+00 1.04851469e+01
66 1 1.12676188e+01 4.64668294e+00 1.57299849e+01
67 1 9.65795758e+00 7.43469498e+00 5.24030735e+00
68 1 9.65795656e+00 7.43469443e+00 1.04851456e+01
69 1 9.65795711e+00 7.43469388e+00 1.57299843e+01
70 1 8.04829489e+00 1.02227061e+01 5.24030806e+00
71 1 8.04829517e+00 1.02227051e+01 1.04851459e+01
72 1 8.04829520e+00 1.02227047e+01 1.57299854e+01
73 1 6.43863273e+00 1.30107168e+01 5.24030830e+00
74 1 6.43863219e+00 1.30107160e+01 1.04851455e+01
75 1 6.43863178e+00 1.30107160e+01 1.57299842e+01
76 1 1.60965960e+00 9.29338218e-01 2.61788831e+00
77 1 1.60965861e+00 9.29336560e-01 7.86272593e+00
78 1 1.60965841e+00 9.29337144e-01 1.31075643e+01
79 1 -3.27720888e-06 3.71734861e+00 2.61788780e+00
80 1 -3.30201049e-06 3.71734836e+00 7.86272654e+00
81 1 -3.32512581e-06 3.71734807e+00 1.31075656e+01
82 1 -1.60966579e+00 6.50535997e+00 2.61788748e+00
83 1 -1.60966649e+00 6.50535927e+00 7.86272719e+00
84 1 -1.60966542e+00 6.50535908e+00 1.31075655e+01
85 1 -3.21932755e+00 9.29337069e+00 2.61788828e+00
86 1 -3.21932915e+00 9.29336933e+00 7.86272695e+00
87 1 -3.21932861e+00 9.29336985e+00 1.31075652e+01
88 1 -4.82899035e+00 1.20813817e+01 2.61788867e+00
89 1 -4.82899028e+00 1.20813816e+01 7.86272714e+00
90 1 -4.82899092e+00 1.20813804e+01 1.31075653e+01
91 1 4.82897917e+00 9.29338108e-01 2.61788785e+00
92 1 4.82897815e+00 9.29336721e-01 7.86272708e+00
93 1 4.82897953e+00 9.29336993e-01 1.31075644e+01
94 1 3.21931595e+00 3.71734916e+00 2.61788820e+00
95 1 3.21931606e+00 3.71734921e+00 7.86272582e+00
96 1 3.21931638e+00 3.71734803e+00 1.31075642e+01
97 1 1.60965458e+00 6.50535918e+00 2.61788884e+00
98 1 1.60965513e+00 6.50535971e+00 7.86272652e+00
99 1 1.60965440e+00 6.50535850e+00 1.31075652e+01
100 1 -7.30702309e-06 9.29336999e+00 2.61788777e+00
101 1 -7.50510501e-06 9.29336960e+00 7.86272709e+00
102 1 -8.19615677e-06 9.29336942e+00 1.31075657e+01
103 1 -1.60966922e+00 1.20813812e+01 2.61788874e+00
104 1 -1.60967058e+00 1.20813811e+01 7.86272670e+00
105 1 -1.60967028e+00 1.20813810e+01 1.31075645e+01
106 1 8.04830055e+00 9.29337121e-01 2.61788826e+00
107 1 8.04829987e+00 9.29338059e-01 7.86272624e+00
108 1 8.04830032e+00 9.29336915e-01 1.31075651e+01
109 1 6.43863815e+00 3.71734812e+00 2.61788849e+00
110 1 6.43863725e+00 3.71734796e+00 7.86272685e+00
111 1 6.43863759e+00 3.71734797e+00 1.31075647e+01
112 1 4.82897465e+00 6.50535995e+00 2.61788825e+00
113 1 4.82897505e+00 6.50535887e+00 7.86272630e+00
114 1 4.82897444e+00 6.50535891e+00 1.31075653e+01
115 1 3.21931281e+00 9.29337039e+00 2.61788811e+00
116 1 3.21931347e+00 9.29336959e+00 7.86272626e+00
117 1 3.21931386e+00 9.29337017e+00 1.31075655e+01
118 1 1.60965137e+00 1.20813811e+01 2.61788757e+00
119 1 1.60965063e+00 1.20813812e+01 7.86272682e+00
120 1 1.60965068e+00 1.20813806e+01 1.31075655e+01
121 1 1.12676205e+01 9.29338134e-01 2.61788821e+00
122 1 1.12676206e+01 9.29337363e-01 7.86272658e+00
123 1 1.12676200e+01 9.29337471e-01 1.31075656e+01
124 1 9.65795785e+00 3.71734841e+00 2.61788800e+00
125 1 9.65795836e+00 3.71734790e+00 7.86272590e+00
126 1 9.65795836e+00 3.71734888e+00 1.31075646e+01
127 1 8.04829659e+00 6.50535872e+00 2.61788744e+00
128 1 8.04829546e+00 6.50535963e+00 7.86272620e+00
129 1 8.04829570e+00 6.50535848e+00 1.31075654e+01
130 1 6.43863279e+00 9.29337021e+00 2.61788779e+00
131 1 6.43863398e+00 9.29337014e+00 7.86272701e+00
132 1 6.43863358e+00 9.29336952e+00 1.31075646e+01
133 1 4.82897071e+00 1.20813814e+01 2.61788771e+00
134 1 4.82897140e+00 1.20813805e+01 7.86272632e+00
135 1 4.82897024e+00 1.20813801e+01 1.31075653e+01
136 1 1.44869415e+01 9.29337947e-01 2.61788752e+00
137 1 1.44869413e+01 9.29336971e-01 7.86272673e+00
138 1 1.44869408e+01 9.29337497e-01 1.31075646e+01
139 1 1.28772796e+01 3.71734894e+00 2.61788766e+00
140 1 1.28772793e+01 3.71734830e+00 7.86272646e+00
141 1 1.28772781e+01 3.71734760e+00 1.31075644e+01
142 1 1.12676163e+01 6.50535960e+00 2.61788734e+00
143 1 1.12676160e+01 6.50535896e+00 7.86272661e+00
144 1 1.12676155e+01 6.50535891e+00 1.31075641e+01
145 1 9.65795317e+00 9.29337000e+00 2.61788835e+00
146 1 9.65795377e+00 9.29337060e+00 7.86272664e+00
147 1 9.65795403e+00 9.29336944e+00 1.31075652e+01
148 1 8.04829140e+00 1.20813809e+01 2.61788812e+00
149 1 8.04829161e+00 1.20813811e+01 7.86272661e+00
150 1 8.04829110e+00 1.20813804e+01 1.31075654e+01
151 2 -1.36027029e-06 1.85867422e+00 1.97134502e+00
152 2 -2.08637212e-06 1.85867306e+00 7.21618502e+00
153 2 -2.01078413e-06 1.85867339e+00 1.24610225e+01
154 2 -1.60966335e+00 4.64668449e+00 1.97134530e+00
155 2 -1.60966319e+00 4.64668466e+00 7.21618391e+00
156 2 -1.60966394e+00 4.64668310e+00 1.24610223e+01
157 2 -3.21932630e+00 7.43469512e+00 1.97134609e+00
158 2 -3.21932630e+00 7.43469415e+00 7.21618353e+00
159 2 -3.21932576e+00 7.43469542e+00 1.24610230e+01
160 2 -4.82898740e+00 1.02227064e+01 1.97134630e+00
161 2 -4.82898815e+00 1.02227054e+01 7.21618436e+00
162 2 -4.82898880e+00 1.02227058e+01 1.24610228e+01
163 2 -6.43865023e+00 1.30107176e+01 1.97134596e+00
164 2 -6.43864984e+00 1.30107163e+01 7.21618427e+00
165 2 -6.43865066e+00 1.30107166e+01 1.24610226e+01
166 2 3.21931932e+00 1.85867394e+00 1.97134508e+00
167 2 3.21931907e+00 1.85867325e+00 7.21618249e+00
168 2 3.21931844e+00 1.85867251e+00 1.24610222e+01
169 2 1.60965740e+00 4.64668499e+00 1.97134552e+00
170 2 1.60965737e+00 4.64668354e+00 7.21618432e+00
171 2 1.60965703e+00 4.64668331e+00 1.24610224e+01
172 2 -5.56498184e-06 7.43469556e+00 1.97134569e+00
173 2 -5.20536676e-06 7.43469492e+00 7.21618481e+00
174 2 -4.92650097e-06 7.43469458e+00 1.24610230e+01
175 2 -1.60966739e+00 1.02227068e+01 1.97134679e+00
176 2 -1.60966794e+00 1.02227057e+01 7.21618413e+00
177 2 -1.60966712e+00 1.02227060e+01 1.24610229e+01
178 2 -3.21932923e+00 1.30107169e+01 1.97134593e+00
179 2 -3.21933027e+00 1.30107173e+01 7.21618477e+00
180 2 -3.21933022e+00 1.30107164e+01 1.24610220e+01
181 2 6.43864028e+00 1.85867318e+00 1.97134592e+00
182 2 6.43864017e+00 1.85867303e+00 7.21618401e+00
183 2 6.43863895e+00 1.85867271e+00 1.24610227e+01
184 2 4.82897880e+00 4.64668367e+00 1.97134569e+00
185 2 4.82897797e+00 4.64668437e+00 7.21618421e+00
186 2 4.82897766e+00 4.64668339e+00 1.24610216e+01
187 2 3.21931556e+00 7.43469532e+00 1.97134679e+00
188 2 3.21931587e+00 7.43469504e+00 7.21618247e+00
189 2 3.21931593e+00 7.43469457e+00 1.24610223e+01
190 2 1.60965301e+00 1.02227072e+01 1.97134576e+00
191 2 1.60965357e+00 1.02227063e+01 7.21618386e+00
192 2 1.60965320e+00 1.02227048e+01 1.24610226e+01
193 2 -8.06296305e-06 1.30107167e+01 1.97134513e+00
194 2 -9.29285114e-06 1.30107164e+01 7.21618423e+00
195 2 -9.68158390e-06 1.30107167e+01 1.24610221e+01
196 2 9.65796119e+00 1.85867330e+00 1.97134649e+00
197 2 9.65796048e+00 1.85867291e+00 7.21618406e+00
198 2 9.65796047e+00 1.85867326e+00 1.24610231e+01
199 2 8.04829913e+00 4.64668460e+00 1.97134466e+00
200 2 8.04829774e+00 4.64668478e+00 7.21618398e+00
201 2 8.04829860e+00 4.64668324e+00 1.24610217e+01
202 2 6.43863552e+00 7.43469478e+00 1.97134541e+00
203 2 6.43863665e+00 7.43469539e+00 7.21618327e+00
204 2 6.43863613e+00 7.43469453e+00 1.24610223e+01
205 2 4.82897443e+00 1.02227068e+01 1.97134479e+00
206 2 4.82897382e+00 1.02227053e+01 7.21618456e+00
207 2 4.82897349e+00 1.02227057e+01 1.24610220e+01
208 2 3.21931196e+00 1.30107167e+01 1.97134610e+00
209 2 3.21931229e+00 1.30107174e+01 7.21618476e+00
210 2 3.21931095e+00 1.30107167e+01 1.24610225e+01
211 2 1.28772815e+01 1.85867334e+00 1.97134570e+00
212 2 1.28772816e+01 1.85867318e+00 7.21618401e+00
213 2 1.28772811e+01 1.85867197e+00 1.24610224e+01
214 2 1.12676199e+01 4.64668343e+00 1.97134643e+00
215 2 1.12676180e+01 4.64668372e+00 7.21618458e+00
216 2 1.12676194e+01 4.64668474e+00 1.24610231e+01
217 2 9.65795708e+00 7.43469530e+00 1.97134541e+00
218 2 9.65795723e+00 7.43469475e+00 7.21618348e+00
219 2 9.65795696e+00 7.43469467e+00 1.24610227e+01
220 2 8.04829506e+00 1.02227060e+01 1.97134534e+00
221 2 8.04829431e+00 1.02227059e+01 7.21618331e+00
222 2 8.04829359e+00 1.02227052e+01 1.24610238e+01
223 2 6.43863383e+00 1.30107174e+01 1.97134649e+00
224 2 6.43863216e+00 1.30107162e+01 7.21618450e+00
225 2 6.43863254e+00 1.30107166e+01 1.24610223e+01
226 2 1.60965917e+00 9.29337521e-01 4.59376535e+00
227 2 1.60965877e+00 9.29336541e-01 9.83860327e+00
228 2 1.60965892e+00 9.29336348e-01 1.50834419e+01
229 2 -3.75975572e-06 3.71734786e+00 4.59376455e+00
230 2 -4.01579599e-06 3.71734847e+00 9.83860281e+00
231 2 -4.06185158e-06 3.71734770e+00 1.50834424e+01
232 2 -1.60966540e+00 6.50535956e+00 4.59376442e+00
233 2 -1.60966627e+00 6.50535925e+00 9.83860400e+00
234 2 -1.60966581e+00 6.50535843e+00 1.50834415e+01
235 2 -3.21932789e+00 9.29336973e+00 4.59376524e+00
236 2 -3.21932773e+00 9.29336958e+00 9.83860361e+00
237 2 -3.21932855e+00 9.29337023e+00 1.50834424e+01
238 2 -4.82899031e+00 1.20813807e+01 4.59376491e+00
239 2 -4.82899004e+00 1.20813801e+01 9.83860305e+00
240 2 -4.82899124e+00 1.20813796e+01 1.50834413e+01
241 2 4.82897938e+00 9.29337332e-01 4.59376403e+00
242 2 4.82897938e+00 9.29337405e-01 9.83860283e+00
243 2 4.82897966e+00 9.29336047e-01 1.50834418e+01
244 2 3.21931663e+00 3.71734779e+00 4.59376486e+00
245 2 3.21931757e+00 3.71734829e+00 9.83860362e+00
246 2 3.21931638e+00 3.71734748e+00 1.50834414e+01
247 2 1.60965591e+00 6.50535958e+00 4.59376534e+00
248 2 1.60965387e+00 6.50535887e+00 9.83860312e+00
249 2 1.60965485e+00 6.50535862e+00 1.50834423e+01
250 2 -7.27206581e-06 9.29336954e+00 4.59376427e+00
251 2 -6.81570261e-06 9.29336989e+00 9.83860356e+00
252 2 -7.75589806e-06 9.29336926e+00 1.50834414e+01
253 2 -1.60966883e+00 1.20813815e+01 4.59376519e+00
254 2 -1.60967018e+00 1.20813814e+01 9.83860329e+00
255 2 -1.60967014e+00 1.20813804e+01 1.50834419e+01
256 2 8.04830053e+00 9.29337764e-01 4.59376510e+00
257 2 8.04830008e+00 9.29337173e-01 9.83860327e+00
258 2 8.04829903e+00 9.29335772e-01 1.50834414e+01
259 2 6.43863760e+00 3.71734793e+00 4.59376468e+00
260 2 6.43863756e+00 3.71734846e+00 9.83860304e+00
261 2 6.43863794e+00 3.71734838e+00 1.50834415e+01
262 2 4.82897530e+00 6.50535838e+00 4.59376492e+00
263 2 4.82897456e+00 6.50535927e+00 9.83860302e+00
264 2 4.82897482e+00 6.50535898e+00 1.50834408e+01
265 2 3.21931356e+00 9.29337037e+00 4.59376406e+00
266 2 3.21931258e+00 9.29336922e+00 9.83860266e+00
267 2 3.21931250e+00 9.29336939e+00 1.50834415e+01
268 2 1.60965041e+00 1.20813806e+01 4.59376625e+00
269 2 1.60965115e+00 1.20813799e+01 9.83860292e+00
270 2 1.60965096e+00 1.20813808e+01 1.50834412e+01
271 2 1.12676207e+01 9.29336996e-01 4.59376443e+00
272 2 1.12676199e+01 9.29336448e-01 9.83860345e+00
273 2 1.12676205e+01 9.29336324e-01 1.50834425e+01
274 2 9.65795909e+00 3.71734817e+00 4.59376388e+00
275 2 9.65795787e+00 3.71734829e+00 9.83860361e+00
276 2 9.65795817e+00 3.71734665e+00 1.50834422e+01
277 2 8.04829553e+00 6.50535866e+00 4.59376454e+00
278 2 8.04829609e+00 6.50535870e+00 9.83860326e+00
279 2 8.04829657e+00 6.50535894e+00 1.50834416e+01
280 2 6.43863353e+00 9.29336960e+00 4.59376406e+00
281 2 6.43863438e+00 9.29336941e+00 9.83860343e+00
282 2 6.43863291e+00 9.29336916e+00 1.50834426e+01
283 2 4.82897101e+00 1.20813817e+01 4.59376521e+00
284 2 4.82897200e+00 1.20813802e+01 9.83860345e+00
285 2 4.82897169e+00 1.20813804e+01 1.50834414e+01
286 2 1.44869416e+01 9.29338357e-01 4.59376481e+00
287 2 1.44869415e+01 9.29336907e-01 9.83860418e+00
288 2 1.44869415e+01 9.29335492e-01 1.50834415e+01
289 2 1.28772800e+01 3.71734812e+00 4.59376607e+00
290 2 1.28772781e+01 3.71734675e+00 9.83860315e+00
291 2 1.28772791e+01 3.71734634e+00 1.50834415e+01
292 2 1.12676161e+01 6.50535892e+00 4.59376545e+00
293 2 1.12676164e+01 6.50535835e+00 9.83860344e+00
294 2 1.12676164e+01 6.50535733e+00 1.50834422e+01
295 2 9.65795400e+00 9.29336902e+00 4.59376524e+00
296 2 9.65795417e+00 9.29336892e+00 9.83860276e+00
297 2 9.65795402e+00 9.29336943e+00 1.50834415e+01
298 2 8.04829179e+00 1.20813812e+01 4.59376503e+00
299 2 8.04829226e+00 1.20813801e+01 9.83860288e+00
300 2 8.04829236e+00 1.20813798e+01 1.50834424e+01

Velocities

1 0.00000000e+00 0.00000000e+00 0.00000000e+00
2 0.00000000e+00 0.00000000e+00 0.00000000e+00
3 0.00000000e+00 0.00000000e+00 0.00000000e+00
4 0.00000000e+00 0.00000000e+00 0.00000000e+00
5 0.00000000e+00 0.00000000e+00 0.00000000e+00
6 0.00000000e+00 0.00000000e+00 0.00000000e+00
7 0.00000000e+00 0.00000000e+00 0.00000000e+00
8 0.00000000e+00 0.00000000e+00 0.00000000e+00
9 0.00000000e+00 0.00000000e+00 0.00000000e+00
10 0.00000000e+00 0.00000000e+00 0.00000000e+00
11 0.00000000e+00 0.00000000e+00 0.00000000e+00
12 0.00000000e+00 0.00000000e+00 0.00000000e+00
13 0.00000000e+00 0.00000000e+00 0.00000000e+00
14 0.00000000e+00 0.00000000e+00 0.00000000e+00
15 0.00000000e+00 0.00000000e+00 0.00000000e+00
16 0.00000000e+00 0.00000000e+00 0.00000000e+00
17 0.00000000e+00 0.00000000e+00 0.00000000e+00
18 0.00000000e+00 0.00000000e+00 0.00000000e+00
19 0.00000000e+00 0.00000000e+00 0.00000000e+00
20 0.00000000e+00 0.00000000e+00 0.00000000e+00
21 0.00000000e+00 0.00000000e+00 0.00000000e+00
22 0.00000000e+00 0.00000000e+00 0.00000000e+00
23 0.00000000e+00 0.00000000e+00 0.00000000e+00
24 0.00000000e+00 0.00000000e+00 0.00000000e+00
25 0.00000000e+00 0.00000000e+00 0.00000000e+00
26 0.00000000e+00 0.00000000e+00 0.00000000e+00
27 0.00000000e+00 0.00000000e+00 0.00000000e+00
28 0.00000000e+00 0.00000000e+00 0.00000000e+00
29 0.00000000e+00 0.00000000e+00 0.00000000e+00
30 0.00000000e+00 0.00000000e+00 0.00000000e+00
31 0.00000000e+00 0.00000000e+00 0.00000000e+00
32 0.00000000e+00 0.00000000e+00 0.00000000e+00
33 0.00000000e+00 0.00000000e+00 0.00000000e+00
34 -4.98810227e+01 6.50061651e+01 2.19553558e+01
35 0.00000000e+00 0.00000000e+00 0.00000000e+00
36 0.00000000e+00 0.00000000e+00 0.00000000e+00
37 0.00000000e+00 0.00000000e+00 0.00000000e+00
38 0.00000000e+00 0.00000000e+00 0.00000000e+00
39 0.00000000e+00 0.00000000e+00 0.00000000e+00
40 0.00000000e+00 0.00000000e+00 0.00000000e+00
41 0.00000000e+00 0.00000000e+00 0.00000000e+00
42 0.00000000e+00 0.00000000e+00 0.00000000e+00
43 0.00000000e+00 0.00000000e+00 0.00000000e+00
44 0.00000000e+00 0.00000000e+00 0.00000000e+00
45 0.00000000e+00 0.00000000e+00 0.00000000e+00
46 0.00000000e+00 0.00000000e+00 0.00000000e+00
47 0.00000000e+00 0.00000000e+00 0.00000000e+00
48 0.00000000e+00 0.00000000e+00 0.00000000e+00
49 0.00000000e+00 0.00000000e+00 0.00000000e+00
50 0.00000000e+00 0.00000000e+00 0.00000000e+00
51 0.00000000e+00 0.00000000e+00 0.00000000e+00
52 0.00000000e+00 0.00000000e+00 0.00000000e+00
53 0.00000000e+00 0.00000000e+00 0.00000000e+00
54 0.00000000e+00 0.00000000e+00 0.00000000e+00
55 0.00000000e+00 0.00000000e+00 0.00000000e+00
56 0.00000000e+00 0.00000000e+00 0.00000000e+00
57 0.00000000e+00 0.00000000e+00 0.00000000e+00
58 0.00000000e+00 0.00000000e+00 0.00000000e+00
59 0.00000000e+00 0.00000000e+00 0.00000000e+00
60 0.00000000e+00 0.00000000e+00 0.00000000e+00
61 0.00000000e+00 0.00000000e+00 0.00000000e+00
62 0.00000000e+00 0.00000000e+00 0.00000000e+00
63 0.00000000e+00 0.00000000e+00 0.00000000e+00
64 0.00000000e+00 0.00000000e+00 0.00000000e+00
65 0.00000000e+00 0.00000000e+00 0.00000000e+00
66 0.00000000e+00 0.00000000e+00 0.00000000e+00
67 0.00000000e+00 0.00000000e+00 0.00000000e+00
68 0.00000000e+00 0.00000000e+00 0.00000000e+00
69 0.00000000e+00 0.00000000e+00 0.00000000e+00
70 0.00000000e+00 0.00000000e+00 0.00000000e+00
71 0.00000000e+00 0.00000000e+00 0.00000000e+00
72 0.00000000e+00 0.00000000e+00 0.00000000e+00
73 0.00000000e+00 0.00000000e+00 0.00000000e+00
74 0.00000000e+00 0.00000000e+00 0.00000000e+00
75 0.00000000e+00 0.00000000e+00 0.00000000e+00
76 0.00000000e+00 0.00000000e+00 0.00000000e+00
77 0.00000000e+00 0.00000000e+00 0.00000000e+00
78 0.00000000e+00 0.00000000e+00 0.00000000e+00
79 0.00000000e+00 0.00000000e+00 0.00000000e+00
80 0.00000000e+00 0.00000000e+00 0.00000000e+00
81 0.00000000e+00 0.00000000e+00 0.00000000e+00
82 0.00000000e+00 0.00000000e+00 0.00000000e+00
83 0.00000000e+00 0.00000000e+00 0.00000000e+00
84 0.00000000e+00 0.00000000e+00 0.00000000e+00
85 0.00000000e+00 0.00000000e+00 0.00000000e+00
86 0.00000000e+00 0.00000000e+00 0.00000000e+00
87 0.00000000e+00 0.00000000e+00 0.00000000e+00
88 0.00000000e+00 0.00000000e+00 0.00000000e+00
89 0.00000000e+00 0.00000000e+00 0.00000000e+00
90 0.00000000e+00 0.00000000e+00 0.00000000e+00
91 0.00000000e+00 0.00000000e+00 0.00000000e+00
92 0.00000000e+00 0.00000000e+00 0.00000000e+00
93 0.00000000e+00 0.00000000e+00 0.00000000e+00
94 0.00000000e+00 0.00000000e+00 0.00000000e+00
95 0.00000000e+00 0.00000000e+00 0.00000000e+00
96 0.00000000e+00 0.00000000e+00 0.00000000e+00
97 0.00000000e+00 0.00000000e+00 0.00000000e+00
98 0.00000000e+00 0.00000000e+00 0.00000000e+00
99 0.00000000e+00 0.00000000e+00 0.00000000e+00
100 0.00000000e+00 0.00000000e+00 0.00000000e+00
101 0.00000000e+00 0.00000000e+00 0.00000000e+00
102 0.00000000e+00 0.00000000e+00 0.00000000e+00
103 0.00000000e+00 0.00000000e+00 0.00000000e+00
104 0.00000000e+00 0.00000000e+00 0.00000000e+00
105 0.00000000e+00 0.00000000e+00 0.00000000e+00
106 0.00000000e+00 0.00000000e+00 0.00000000e+00
107 0.00000000e+00 0.00000000e+00 0.00000000e+00
108 0.00000000e+00 0.00000000e+00 0.00000000e+00
109 0.00000000e+00 0.00000000e+00 0.00000000e+00
110 0.00000000e+00 0.00000000e+00 0.00000000e+00
111 0.00000000e+00 0.00000000e+00 0.00000000e+00
112 0.00000000e+00 0.00000000e+00 0.00000000e+00
113 0.00000000e+00 0.00000000e+00 0.00000000e+00
114 0.00000000e+00 0.00000000e+00 0.00000000e+00
115 0.00000000e+00 0.00000000e+00 0.00000000e+00
116 0.00000000e+00 0.00000000e+00 0.00000000e+00
117 0.00000000e+00 0.00000000e+00 0.00000000e+00
118 0.00000000e+00 0.00000000e+00 0.00000000e+00
119 0.00000000e+00 0.00000000e+00 0.00000000e+00
120 0.00000000e+00 0.00000000e+00 0.00000000e+00
121 0.00000000e+00 0.00000000e+00 0.00000000e+00
122 0.00000000e+00 0.00000000e+00 0.00000000e+00
123 0.00000000e+00 0.00000000e+00 0.00000000e+00
124 0.00000000e+00 0.00000000e+00 0.00000000e+00
125 0.00000000e+00 0.00000000e+00 0.00000000e+00
126 0.00000000e+00 0.00000000e+00 0.00000000e+00
127 0.00000000e+00 0.00000000e+00 0.00000000e+00
128 0.00000000e+00 0.00000000e+00 0.00000000e+00
129 0.00000000e+00 0.00000000e+00 0.00000000e+00
130 0.00000000e+00 0.00000000e+00 0.00000000e+00
131 0.00000000e+00 0.00000000e+00 0.00000000e+00
132 0.00000000e+00 0.00000000e+00 0.00000000e+00
133 0.00000000e+00 0.00000000e+00 0.00000000e+00
134 0.00000000e+00 0.00000000e+00 0.00000000e+00
135 0.00000000e+00 0.00000000e+00 0.00000000e+00
136 0.00000000e+00 0.00000000e+00 0.00000000e+00
137 0.00000000e+00 0.00000000e+00 0.00000000e+00
138 0.00000000e+00 0.00000000e+00 0.00000000e+00
139 0.00000000e+00 0.00000000e+00 0.00000000e+00
140 0.00000000e+00 0.00000000e+00 0.00000000e+00
141 0.00000000e+00 0.00000000e+00 0.00000000e+00
142 0.00000000e+00 0.00000000e+00 0.00000000e+00
143 0.00000000e+00 0.00000000e+00 0.00000000e+00
144 0.00000000e+00 0.00000000e+00 0.00000000e+00
145 0.00000000e+00 0.00000000e+00 0.00000000e+00
146 0.00000000e+00 0.00000000e+00 0.00000000e+00
147 0.00000000e+00 0.00000000e+00 0.00000000e+00
148 0.00000000e+00 0.00000000e+00 0.00000000e+00
149 0.00000000e+00 0.00000000e+00 0.00000000e+00
150 0.00000000e+00 0.00000000e+00 0.00000000e+00
151 0.00000000e+00 0.00000000e+00 0.00000000e+00
152 0.00000000e+00 0.00000000e+00 0.00000000e+00
153 0.00000000e+00 0.00000000e+00 0.00000000e+00
154 0.00000000e+00 0.00000000e+00 0.00000000e+00
155 0.00000000e+00 0.00000000e+00 0.00000000e+00
156 0.00000000e+00 0.00000000e+00 0.00000000e+00
157 0.00000000e+00 0.00000000e+00 0.00000000e+00
158 0.00000000e+00 0.00000000e+00 0.00000000e+00
159 0.00000000e+00 0.00000000e+00 0.00000000e+00
160 0.00000000e+00 0.00000000e+00 0.00000000e+00
161 0.00000000e+00 0.00000000e+00 0.00000000e+00
162 0.00000000e+00 0.00000000e+00 0.00000000e+00
163 0.00000000e+00 0.00000000e+00 0.00000000e+00
164 0.00000000e+00 0.00000000e+00 0.00000000e+00
165 0.00000000e+00 0.00000000e+00 0.00000000e+00
166 0.00000000e+00 0.00000000e+00 0.00000000e+00
167 0.00000000e+00 0.00000000e+00 0.00000000e+00
168 0.00000000e+00 0.00000000e+00 0.00000000e+00
169 0.00000000e+00 0.00000000e+00 0.00000000e+00
170 0.00000000e+00 0.00000000e+00 0.00000000e+00
171 0.00000000e+00 0.00000000e+00 0.00000000e+00
172 0.00000000e+00 0.00000000e+00 0.00000000e+00
173 0.00000000e+00 0.00000000e+00 0.00000000e+00
174 0.00000000e+00 0.00000000e+00 0.00000000e+00
175 0.00000000e+00 0.00000000e+00 0.00000000e+00
176 0.00000000e+00 0.00000000e+00 0.00000000e+00
177 0.00000000e+00 0.00000000e+00 0.00000000e+00
178 0.00000000e+00 0.00000000e+00 0.00000000e+00
179 0.00000000e+00 0.00000000e+00 0.00000000e+00
180 0.00000000e+00 0.00000000e+00 0.00000000e+00
181 0.00000000e+00 0.00000000e+00 0.00000000e+00
182 0.00000000e+00 0.00000000e+00 0.00000000e+00
183 0.00000000e+00 0.00000000e+00 0.00000000e+00
184 0.00000000e+00 0.00000000e+00 0.00000000e+00
185 0.00000000e+00 0.00000000e+00 0.00000000e+00
186 0.00000000e+00 0.00000000e+00 0.00000000e+00
187 0.00000000e+00 0.00000000e+00 0.00000000e+00
188 0.00000000e+00 0.00000000e+00 0.00000000e+00
189 0.00000000e+00 0.00000000e+00 0.00000000e+00
190 0.00000000e+00 0.00000000e+00 0.00000000e+00
191 0.00000000e+00 0.00000000e+00 0.00000000e+00
192 0.00000000e+00 0.00000000e+00 0.00000000e+00
193 0.00000000e+00 0.00000000e+00 0.00000000e+00
194 0.00000000e+00 0.00000000e+00 0.00000000e+00
195 0.00000000e+00 0.00000000e+00 0.00000000e+00
196 0.00000000e+00 0.00000000e+00 0.00000000e+00
197 0.00000000e+00 0.00000000e+00 0.00000000e+00
198 0.00000000e+00 0.00000000e+00 0.00000000e+00
199 0.00000000e+00 0.00000000e+00 0.00000000e+00
200 0.00000000e+00 0.00000000e+00 0.00000000e+00
201 0.00000000e+00 0.00000000e+00 0.00000000e+00
202 0.00000000e+00 0.00000000e+00 0.00000000e+00
203 0.00000000e+00 0.00000000e+00 0.00000000e+00
204 0.00000000e+00 0.00000000e+00 0.00000000e+00
205 0.00000000e+00 0.00000000e+00 0.00000000e+00
206 0.00000000e+00 0.00000000e+00 0.00000000e+00
207 0.00000000e+00 0.00000000e+00 0.00000000e+00
208 0.00000000e+00 0.00000000e+00 0.00000000e+00
209 0.00000000e+00 0.00000000e+00 0.00000000e+00
210 0.00000000e+00 0.00000000e+00 0.00000000e+00
211 0.00000000e+00 0.00000000e+00 0.00000000e+00
212 0.00000000e+00 0.00000000e+00 0.00000000e+00
213 0.00000000e+00 0.00000000e+00 0.00000000e+00
214 0.00000000e+00 0.00000000e+00 0.00000000e+00
215 0.00000000e+00 0.00000000e+00 0.00000000e+00
216 0.00000000e+00 0.00000000e+00 0.00000000e+00
217 0.00000000e+00 0.00000000e+00 0.00000000e+00
218 0.00000000e+00 0.00000000e+00 0.00000000e+00
219 0.00000000e+00 0.00000000e+00 0.00000000e+00
220 0.00000000e+00 0.00000000e+00 0.00000000e+00
221 0.00000000e+00 0.00000000e+00 0.00000000e+00
222 0.00000000e+00 0.00000000e+00 0.00000000e+00
223 0.00000000e+00 0.00000000e+00 0.00000000e+00
224 0.00000000e+00 0.00000000e+00 0.00000000e+00
225 0.00000000e+00 0.00000000e+00 0.00000000e+00
226 0.00000000e+00 0.00000000e+00 0.00000000e+00
227 0.00000000e+00 0.00000000e+00 0.00000000e+00
228 0.00000000e+00 0.00000000e+00 0.00000000e+00
229 0.00000000e+00 0.00000000e+00 0.00000000e+00
230 0.00000000e+00 0.00000000e+00 0.00000000e+00
231 0.00000000e+00 0.00000000e+00 0.00000000e+00
232 0.00000000e+00 0.00000000e+00 0.00000000e+00
233 0.00000000e+00 0.00000000e+00 0.00000000e+00
234 0.00000000e+00 0.00000000e+00 0.00000000e+00
235 0.00000000e+00 0.00000000e+00 0.00000000e+00
236 0.00000000e+00 0.00000000e+00 0.00000000e+00
237 0.00000000e+00 0.00000000e+00 0.00000000e+00
238 0.00000000e+00 0.00000000e+00 0.00000000e+00
239 0.00000000e+00 0.00000000e+00 0.00000000e+00
240 0.00000000e+00 0.00000000e+00 0.00000000e+00
241 0.00000000e+00 0.00000000e+00 0.00000000e+00
242 0.00000000e+00 0.00000000e+00 0.00000000e+00
243 0.00000000e+00 0.00000000e+00 0.00000000e+00
244 0.00000000e+00 0.00000000e+00 0.00000000e+00
245 0.00000000e+00 0.00000000e+00 0.00000000e+00
246 0.00000000e+00 0.00000000e+00 0.00000000e+00
247 0.00000000e+00 0.00000000e+00 0.00000000e+00
248 0.00000000e+00 0.00000000e+00 0.00000000e+00
249 0.00000000e+00 0.00000000e+00 0.00000000e+00
250 0.00000000e+00 0.00000000e+00 0.00000000e+00
251 0.00000000e+00 0.00000000e+00 0.00000000e+00
252 0.00000000e+00 0.00000000e+00 0.00000000e+00
253 0.00000000e+00 0.00000000e+00 0.00000000e+00
254 0.00000000e+00 0.00000000e+00 0.00000000e+00
255 0.00000000e+00 0.00000000e+00 0.00000000e+00
256 0.00000000e+00 0.00000000e+00 0.00000000e+00
257 0.00000000e+00 0.00000000e+00 0.00000000e+00
258 0.00000000e+00 0.00000000e+00 0.00000000e+00
259 0.00000000e+00 0.00000000e+00 0.00000000e+00
260 0.00000000e+00 0.00000000e+00 0.00000000e+00
261 0.00000000e+00 0.00000000e+00 0.00000000e+00
262 0.00000000e+00 0.00000000e+00 0.00000000e+00
263 0.00000000e+00 0.00000000e+00 0.00000000e+00
264 0.00000000e+00 0.00000000e+00 0.00000000e+00
265 0.00000000e+00 0.00000000e+00 0.00000000e+00
266 0.00000000e+00 0.00000000e+00 0.00000000e+00
267 0.00000000e+00 0.00000000e+00 0.00000000e+00
268 0.00000000e+00 0.00000000e+00 0.00000000e+00
269 0.00000000e+00 0.00000000e+00 0.00000000e+00
270 0.00000000e+00 0.00000000e+00 0.00000000e+00
271 0.00000000e+00 0.00000000e+00 0.00000000e+00
272 0.00000000e+00 0.00000000e+00 0.00000000e+00
273 0.00000000e+00 0.00000000e+00 0.00000000e+00
274 0.00000000e+00 0.00000000e+00 0.00000000e+00
275 0.00000000e+00 0.00000000e+00 0.00000000e+00
276 0.00000000e+00 0.00000000e+00 0.00000000e+00
277 0.00000000e+00 0.00000000e+00 0.00000000e+00
278 0.00000000e+00 0.00000000e+00 0.00000000e+00
279 0.00000000e+00 0.00000000e+00 0.00000000e+00
280 0.00000000e+00 0.00000000e+00 0.00000000e+00
281 0.00000000e+00 0.00000000e+00 0.00000000e+00
282 0.00000000e+00 0.00000000e+00 0.00000000e+00
283 0.00000000e+00 0.00000000e+00 0.00000000e+00
284 0.00000000e+00 0.00000000e+00 0.00000000e+00
285 0.00000000e+00 0.00000000e+00 0.00000000e+00
286 0.00000000e+00 0.00000000e+00 0.00000000e+00
287 0.00000000e+00 0.00000000e+00 0.00000000e+00
288 0.00000000e+00 0.00000000e+00 0.00000000e+00
289 0.00000000e+00 0.00000000e+00 0.00000000e+00
290 0.00000000e+00 0.00000000e+00 0.00000000e+00
291 0.00000000e+00 0.00000000e+00 0.00000000e+00
292 0.00000000e+00 0.00000000e+00 0.00000000e+00
293 0.00000000e+00 0.00000000e+00 0.00000000e+00
294 0.00000000e+00 0.00000000e+00 0.00000000e+00
295 0.00000000e+00 0.00000000e+00 0.00000000e+00
296 0.00000000e+00 0.00000000e+00 0.00000000e+00
297 0.00000000e+00 0.00000000e+00 0.00000000e+00