ITEM: TIMESTEP
10116
ITEM: NUMBER OF ATOMS
5400
ITEM: BOX BOUNDS xy xz yz pp pp pp
-1.2274701360000000e-06 7.2434683890000002e+01 2.4144874590000001e+01
-1.7284199339999999e-06 4.1820163800000003e+01 -1.2274701360000000e-06
0.0000000000000000e+00 3.1469031000000001e+01 -1.7284199339999999e-06
ITEM: ATOMS id type x y z
76 1 1.48187 1.09589 2.67775
91 1 4.70119 1.09589 2.67775
94 1 3.09153 3.8839 2.67775
109 1 6.31085 3.8839 2.67775
112 1 4.70119 6.67191 2.67775
127 1 7.92051 6.67191 2.67775
166 2 3.09153 2.02522 2.02397
184 2 4.70119 4.81323 2.02397
16 1 3.09153 2.02522 5.30017
510 2 19.1881 13.1773 12.5136
77 1 1.48187 1.09589 7.92259
92 1 4.70119 1.09589 7.92259
95 1 3.09153 3.8839 7.92259
110 1 6.31085 3.8839 7.92259
113 1 4.70119 6.67191 7.92259
128 1 7.92051 6.67191 7.92259
167 2 3.09153 2.02522 7.26881
185 2 4.70119 4.81323 7.26881
277 2 7.92051 6.67191 4.64639
226 2 1.48187 1.09589 4.64639
241 2 4.70119 1.09589 4.64639
244 2 3.09153 3.8839 4.64639
259 2 6.31085 3.8839 4.64639
262 2 4.70119 6.67191 4.64639
17 1 3.09153 2.02522 10.545
35 1 4.70119 4.81323 10.545
227 2 1.48187 1.09589 9.89123
242 2 4.70119 1.09589 9.89123
245 2 3.09153 3.8839 9.89123
260 2 6.31085 3.8839 9.89123
263 2 4.70119 6.67191 9.89123
278 2 7.92051 6.67191 9.89123
34 1 4.70119 4.81323 5.30017
2763 1 12.7495 2.02522 0.0553306
78 1 1.48187 1.09589 13.1674
93 1 4.70119 1.09589 13.1674
96 1 3.09153 3.8839 13.1674
111 1 6.31085 3.8839 13.1674
114 1 4.70119 6.67191 13.1674
129 1 7.92051 6.67191 13.1674
168 2 3.09153 2.02522 12.5136
279 2 7.92051 6.67191 15.1361
186 2 4.70119 4.81323 12.5136
228 2 1.48187 1.09589 15.1361
243 2 4.70119 1.09589 15.1361
246 2 3.09153 3.8839 15.1361
261 2 6.31085 3.8839 15.1361
264 2 4.70119 6.67191 15.1361
130 1 6.31085 9.45992 2.67775
145 1 9.53017 9.45992 2.67775
148 1 7.9205 12.2479 2.67775
202 2 6.31085 7.60125 2.02397
220 2 7.92051 10.3893 2.02397
388 1 11.1398 12.2479 2.67775
463 2 9.53016 13.1773 2.02397
52 1 6.31085 7.60124 5.30017
70 1 7.92051 10.3893 5.30017
131 1 6.31085 9.45992 7.92259
146 1 9.53017 9.45992 7.92259
149 1 7.9205 12.2479 7.92259
298 2 7.9205 12.2479 4.64639
203 2 6.31085 7.60124 7.26881
221 2 7.92051 10.3893 7.26881
280 2 6.31085 9.45992 4.64639
295 2 9.53017 9.45992 4.64639
313 1 9.53016 13.1773 5.30017
389 1 11.1398 12.2479 7.92259
464 2 9.53016 13.1773 7.26881
538 2 11.1398 12.2479 4.64639
53 1 6.31085 7.60124 10.545
71 1 7.9205 10.3893 10.545
281 2 6.31084 9.45992 9.89123
296 2 9.53017 9.45992 9.89123
299 2 7.9205 12.2479 9.89123
314 1 9.53016 13.1773 10.545
539 2 11.1398 12.2479 9.89123
474 2 15.9688 7.60124 12.5136
2766 1 11.1398 4.81323 0.0553305
132 1 6.31084 9.45992 13.1674
147 1 9.53017 9.45992 13.1674
150 1 7.9205 12.2479 13.1674
204 2 6.31085 7.60124 12.5136
222 2 7.9205 10.3893 12.5136
282 2 6.31084 9.45992 15.1361
297 2 9.53017 9.45992 15.1361
300 2 7.9205 12.2479 15.1361
322 1 15.9688 7.60125 5.30017
390 1 11.1398 12.2479 13.1674
465 2 9.53016 13.1773 12.5136
540 2 11.1398 12.2479 15.1361
106 1 7.92051 1.09589 2.67775
121 1 11.1398 1.09589 2.67775
124 1 9.53017 3.8839 2.67775
139 1 12.7495 3.8839 2.67775
142 1 11.1398 6.67191 2.67775
181 2 6.31085 2.02522 2.02397
196 2 9.53017 2.02522 2.02397
199 2 7.92051 4.81323 2.02397
214 2 11.1398 4.81323 2.02397
382 1 14.3591 6.67191 2.67775
31 1 6.31085 2.02522 5.30017
46 1 9.53017 2.02522 5.30017
49 1 7.92051 4.81323 5.30017
64 1 11.1398 4.81323 5.30017
107 1 7.92051 1.09589 7.92259
122 1 11.1398 1.09589 7.92259
125 1 9.53017 3.8839 7.92259
140 1 12.7495 3.8839 7.92259
143 1 11.1398 6.67191 7.92259
182 2 6.31085 2.02522 7.26881
197 2 9.53017 2.02522 7.26881
215 2 11.1398 4.81323 7.26881
256 2 7.92051 1.09589 4.64639
271 2 11.1398 1.09589 4.64639
274 2 9.53017 3.8839 4.64639
292 2 11.1398 6.67191 4.64639
289 2 12.7495 3.8839 4.64639
200 2 7.92051 4.81323 7.26881
383 1 14.3591 6.67191 7.92259
532 2 14.3591 6.67191 4.64639
32 1 6.31085 2.02522 10.545
47 1 9.53017 2.02522 10.545
50 1 7.92051 4.81323 10.545
65 1 11.1398 4.81323 10.545
257 2 7.92051 1.09589 9.89123
272 2 11.1398 1.09589 9.89123
275 2 9.53017 3.8839 9.89123
290 2 12.7495 3.8839 9.89123
293 2 11.1398 6.67191 9.89123
533 2 14.3591 6.67191 9.89123
509 2 19.1881 13.1773 7.26881
491 2 17.5785 10.3893 7.26881
508 2 19.1881 13.1773 2.02397
359 1 19.1881 13.1773 10.545
108 1 7.92051 1.09589 13.1674
123 1 11.1398 1.09589 13.1674
126 1 9.53017 3.8839 13.1674
141 1 12.7495 3.8839 13.1674
144 1 11.1398 6.67191 13.1674
198 2 9.53017 2.02522 12.5136
201 2 7.92051 4.81323 12.5136
216 2 11.1398 4.81323 12.5136
258 2 7.92051 1.09589 15.1361
273 2 11.1398 1.09589 15.1361
276 2 9.53017 3.8839 15.1361
294 2 11.1398 6.67191 15.1361
291 2 12.7495 3.8839 15.1361
183 2 6.31085 2.02522 12.5136
384 1 14.3591 6.67191 13.1674
534 2 14.3591 6.67191 15.1361
217 2 9.53017 7.60125 2.02397
385 1 12.7495 9.45992 2.67775
400 1 15.9688 9.45992 2.67775
403 1 14.3591 12.2479 2.67775
418 1 17.5785 12.2479 2.67775
457 2 12.7495 7.60125 2.02397
460 2 11.1398 10.3893 2.02397
475 2 14.3591 10.3893 2.02397
478 2 12.7495 13.1773 2.02397
493 2 15.9688 13.1773 2.02397
67 1 9.53017 7.60125 5.30017
218 2 9.53017 7.60124 7.26881
307 1 12.7495 7.60125 5.30017
310 1 11.1398 10.3893 5.30017
325 1 14.3591 10.3893 5.30017
328 1 12.7495 13.1773 5.30017
343 1 15.9688 13.1773 5.30017
386 1 12.7495 9.45992 7.92259
401 1 15.9688 9.45992 7.92259
404 1 14.3591 12.2479 7.92259
419 1 17.5785 12.2479 7.92259
458 2 12.7495 7.60125 7.26881
461 2 11.1398 10.3893 7.26881
476 2 14.3591 10.3893 7.26881
494 2 15.9688 13.1773 7.26881
535 2 12.7495 9.45992 4.64639
550 2 15.9688 9.45992 4.64639
553 2 14.3591 12.2479 4.64639
568 2 17.5785 12.2479 4.64639
479 2 12.7495 13.1773 7.26881
68 1 9.53017 7.60124 10.545
308 1 12.7495 7.60125 10.545
311 1 11.1398 10.3893 10.545
326 1 14.3591 10.3893 10.545
329 1 12.7495 13.1773 10.545
344 1 15.9688 13.1773 10.545
536 2 12.7495 9.45992 9.89123
551 2 15.9688 9.45992 9.89123
554 2 14.3591 12.2479 9.89123
569 2 17.5785 12.2479 9.89123
492 2 17.5785 10.3893 12.5136
219 2 9.53017 7.60124 12.5136
341 1 17.5785 10.3893 10.545
323 1 15.9688 7.60125 10.545
473 2 15.9688 7.60125 7.26881
358 1 19.1881 13.1773 5.30017
2769 1 9.53017 7.60125 0.0553305
387 1 12.7495 9.45992 13.1674
402 1 15.9688 9.45992 13.1674
405 1 14.3591 12.2479 13.1674
420 1 17.5785 12.2479 13.1674
459 2 12.7495 7.60124 12.5136
462 2 11.1398 10.3893 12.5136
477 2 14.3591 10.3893 12.5136
480 2 12.7495 13.1773 12.5136
495 2 15.9688 13.1773 12.5136
537 2 12.7495 9.45992 15.1361
552 2 15.9688 9.45992 15.1361
555 2 14.3591 12.2479 15.1361
570 2 17.5785 12.2479 15.1361
211 2 12.7495 2.02522 2.02397
454 2 14.3592 4.81323 2.02397
61 1 12.7495 2.02522 5.30017
212 2 12.7495 2.02522 7.26881
304 1 14.3592 4.81323 5.30017
455 2 14.3592 4.81323 7.26881
62 1 12.7495 2.02522 10.545
305 1 14.3592 4.81323 10.545
490 2 17.5785 10.3893 2.02397
213 2 12.7495 2.02522 12.5136
340 1 17.5785 10.3893 5.30017
456 2 14.3592 4.81323 12.5136
472 2 15.9688 7.60125 2.02397
3006 1 14.3592 4.81323 0.0553307
3030 1 12.7495 13.1773 0.0553307
3027 1 14.3591 10.3893 0.0553307
3015 1 9.53016 13.1773 0.0553307
3012 1 11.1398 10.3893 0.0553306
2718 1 3.09153 2.02522 0.0553305
2772 1 7.92051 10.3893 0.0553306
2751 1 7.92051 4.81323 0.0553305
3009 1 12.7495 7.60125 0.0553306
2733 1 6.31085 2.02522 0.0553305
3042 1 17.5785 10.3893 0.0553307
2748 1 9.53017 2.02522 0.0553305
3060 1 19.1881 13.1773 0.0553307
3024 1 15.9688 7.60125 0.0553307
2754 1 6.31085 7.60125 0.0553305
2736 1 4.70119 4.81323 0.0553305
3045 1 15.9688 13.1773 0.0553307
2776 1 1.48187 1.09589 18.4123
2791 1 4.70119 1.09589 18.4123
2794 1 3.09153 3.8839 18.4123
2809 1 6.31085 3.8839 18.4123
2812 1 4.70119 6.67191 18.4123
2827 1 7.92051 6.67191 18.4123
2866 2 3.09153 2.02522 17.7585
2884 2 4.70119 4.81323 17.7585
2716 1 3.09153 2.02522 21.0347
2734 1 4.70119 4.81323 21.0347
2777 1 1.48187 1.09589 23.6571
2792 1 4.70119 1.09589 23.6571
2795 1 3.09153 3.8839 23.6571
2810 1 6.31085 3.8839 23.6571
2813 1 4.70119 6.67191 23.6571
2828 1 7.92051 6.67191 23.6571
2867 2 3.09153 2.02522 23.0033
2885 2 4.70119 4.81323 23.0033
2977 2 7.92051 6.67191 20.3809
2926 2 1.48187 1.09589 20.3809
2941 2 4.70119 1.09589 20.3809
2944 2 3.09153 3.8839 20.3809
2959 2 6.31085 3.8839 20.3809
2962 2 4.70119 6.67191 20.3809
2717 1 3.09153 2.02522 26.2795
2735 1 4.70119 4.81323 26.2795
2927 2 1.48187 1.09589 25.6257
2942 2 4.70119 1.09589 25.6257
2945 2 3.09153 3.8839 25.6257
2960 2 6.31085 3.8839 25.6257
2963 2 4.70119 6.67191 25.6257
2978 2 7.92051 6.67191 25.6257
3210 2 19.1881 13.1773 28.2482
3192 2 17.5785 10.3893 28.2482
2778 1 1.48187 1.09589 28.9019
2793 1 4.70119 1.09589 28.9019
2796 1 3.09153 3.8839 28.9019
2811 1 6.31085 3.8839 28.9019
2814 1 4.70119 6.67191 28.9019
2829 1 7.92051 6.67191 28.9019
2868 2 3.09153 2.02522 28.2482
2979 2 7.92051 6.67191 30.8706
2886 2 4.70119 4.81323 28.2482
2928 2 1.48187 1.09589 30.8706
2943 2 4.70119 1.09589 30.8706
2946 2 3.09153 3.8839 30.8706
2961 2 6.31085 3.8839 30.8706
2964 2 4.70119 6.67191 30.8706
2830 1 6.31084 9.45992 18.4123
2845 1 9.53017 9.45992 18.4123
2848 1 7.9205 12.2479 18.4123
2902 2 6.31085 7.60124 17.7585
2920 2 7.9205 10.3893 17.7585
3088 1 11.1398 12.2479 18.4123
3163 2 9.53016 13.1773 17.7585
2752 1 6.31085 7.60124 21.0347
2770 1 7.9205 10.3893 21.0347
2831 1 6.31084 9.45992 23.6571
2846 1 9.53016 9.45992 23.6571
2849 1 7.9205 12.2479 23.6571
2998 2 7.9205 12.2479 20.3809
2903 2 6.31085 7.60124 23.0033
2921 2 7.9205 10.3893 23.0033
2980 2 6.31084 9.45992 20.3809
2995 2 9.53016 9.45992 20.3809
3013 1 9.53016 13.1773 21.0347
3089 1 11.1398 12.2479 23.6571
3164 2 9.53016 13.1773 23.0033
3238 2 11.1398 12.2479 20.3809
2753 1 6.31085 7.60124 26.2795
2771 1 7.9205 10.3893 26.2795
2981 2 6.31084 9.45992 25.6257
2996 2 9.53016 9.45992 25.6257
2999 2 7.9205 12.2479 25.6257
3014 1 9.53016 13.1773 26.2795
3239 2 11.1398 12.2479 25.6257
345 1 15.9688 13.1773 15.7898
360 1 19.1881 13.1773 15.7898
2832 1 6.31084 9.45992 28.9019
2847 1 9.53016 9.45992 28.9019
2850 1 7.9205 12.2479 28.9019
2904 2 6.31085 7.60124 28.2482
2922 2 7.9205 10.3893 28.2482
2982 2 6.31084 9.45992 30.8706
2997 2 9.53016 9.45992 30.8706
3000 2 7.9205 12.2479 30.8706
342 1 17.5785 10.3893 15.7898
3090 1 11.1398 12.2479 28.9019
3165 2 9.53016 13.1773 28.2482
3240 2 11.1398 12.2479 30.8706
2806 1 7.92051 1.09589 18.4123
2821 1 11.1398 1.09589 18.4123
2824 1 9.53017 3.8839 18.4123
2839 1 12.7495 3.8839 18.4123
2842 1 11.1398 6.67191 18.4123
2881 2 6.31085 2.02522 17.7585
2896 2 9.53017 2.02522 17.7585
2899 2 7.92051 4.81323 17.7585
2914 2 11.1398 4.81323 17.7585
3082 1 14.3591 6.67191 18.4123
2731 1 6.31085 2.02522 21.0347
2746 1 9.53017 2.02522 21.0347
2749 1 7.92051 4.81323 21.0347
2764 1 11.1398 4.81323 21.0347
2807 1 7.92051 1.09589 23.6571
2822 1 11.1398 1.09589 23.6571
2825 1 9.53017 3.8839 23.6571
2840 1 12.7495 3.8839 23.6571
2843 1 11.1398 6.67191 23.6571
2882 2 6.31085 2.02522 23.0033
2897 2 9.53017 2.02522 23.0033
2915 2 11.1398 4.81323 23.0033
2956 2 7.92051 1.09589 20.3809
2971 2 11.1398 1.09589 20.3809
2974 2 9.53017 3.8839 20.3809
2992 2 11.1398 6.67191 20.3809
2989 2 12.7495 3.8839 20.3809
2900 2 7.92051 4.81323 23.0033
3083 1 14.3591 6.67191 23.6571
3232 2 14.3591 6.67191 20.3809
2732 1 6.31085 2.02522 26.2795
2747 1 9.53017 2.02522 26.2795
2750 1 7.92051 4.81323 26.2795
2765 1 11.1398 4.81323 26.2795
2957 2 7.92051 1.09589 25.6257
2972 2 11.1398 1.09589 25.6257
2975 2 9.53017 3.8839 25.6257
2990 2 12.7495 3.8839 25.6257
2993 2 11.1398 6.67191 25.6257
3233 2 14.3591 6.67191 25.6257
3174 2 15.9688 7.60124 28.2482
18 1 3.09153 2.02522 15.7898
3059 1 19.1881 13.1773 26.2795
3041 1 17.5785 10.3893 26.2795
2808 1 7.92051 1.09589 28.9019
2823 1 11.1398 1.09589 28.9019
2826 1 9.53017 3.8839 28.9019
2841 1 12.7495 3.8839 28.9019
2844 1 11.1398 6.67191 28.9019
2898 2 9.53017 2.02522 28.2482
2901 2 7.92051 4.81323 28.2482
2916 2 11.1398 4.81323 28.2482
2958 2 7.92051 1.09589 30.8706
2973 2 11.1398 1.09589 30.8706
2976 2 9.53017 3.8839 30.8706
2994 2 11.1398 6.67191 30.8706
2991 2 12.7495 3.8839 30.8706
2883 2 6.31085 2.02522 28.2482
3084 1 14.3591 6.67191 28.9019
3234 2 14.3591 6.67191 30.8706
2917 2 9.53017 7.60124 17.7585
3085 1 12.7495 9.45992 18.4123
3100 1 15.9688 9.45992 18.4123
3103 1 14.3591 12.2479 18.4123
3118 1 17.5785 12.2479 18.4123
3157 2 12.7495 7.60124 17.7585
3160 2 11.1398 10.3893 17.7585
3175 2 14.3591 10.3893 17.7585
3178 2 12.7495 13.1773 17.7585
3193 2 15.9688 13.1773 17.7585
2767 1 9.53017 7.60124 21.0347
2918 2 9.53017 7.60124 23.0033
3007 1 12.7495 7.60124 21.0347
3010 1 11.1398 10.3893 21.0347
3025 1 14.3591 10.3893 21.0347
3028 1 12.7495 13.1773 21.0347
3043 1 15.9688 13.1773 21.0347
3086 1 12.7495 9.45992 23.6571
3101 1 15.9688 9.45992 23.6571
3104 1 14.3591 12.2479 23.6571
3119 1 17.5785 12.2479 23.6571
3158 2 12.7495 7.60124 23.0033
3161 2 11.1398 10.3893 23.0033
3176 2 14.3591 10.3893 23.0033
3194 2 15.9688 13.1773 23.0033
3235 2 12.7495 9.45992 20.3809
3250 2 15.9688 9.45992 20.3809
3253 2 14.3591 12.2479 20.3809
3268 2 17.5785 12.2479 20.3809
3179 2 12.7495 13.1773 23.0033
2768 1 9.53017 7.60124 26.2795
3008 1 12.7495 7.60124 26.2795
3011 1 11.1398 10.3893 26.2795
3026 1 14.3591 10.3893 26.2795
3029 1 12.7495 13.1773 26.2795
3044 1 15.9688 13.1773 26.2795
3236 2 12.7495 9.45992 25.6257
3251 2 15.9688 9.45992 25.6257
3254 2 14.3591 12.2479 25.6257
3269 2 17.5785 12.2479 25.6257
3023 1 15.9688 7.60124 26.2795
2919 2 9.53017 7.60124 28.2482
327 1 14.3591 10.3893 15.7898
3209 2 19.1881 13.1773 23.0033
330 1 12.7495 13.1773 15.7898
36 1 4.70119 4.81323 15.7898
3191 2 17.5785 10.3893 23.0033
3087 1 12.7495 9.45992 28.9019
3102 1 15.9688 9.45992 28.9019
3105 1 14.3591 12.2479 28.9019
3120 1 17.5785 12.2479 28.9019
3159 2 12.7495 7.60124 28.2482
3162 2 11.1398 10.3893 28.2482
3177 2 14.3591 10.3893 28.2482
3180 2 12.7495 13.1773 28.2482
3195 2 15.9688 13.1773 28.2482
3237 2 12.7495 9.45992 30.8706
3252 2 15.9688 9.45992 30.8706
3255 2 14.3591 12.2479 30.8706
3270 2 17.5785 12.2479 30.8706
2911 2 12.7495 2.02522 17.7585
3154 2 14.3591 4.81323 17.7585
2761 1 12.7495 2.02522 21.0347
2912 2 12.7495 2.02522 23.0033
3004 1 14.3591 4.81323 21.0347
3155 2 14.3591 4.81323 23.0033
2762 1 12.7495 2.02522 26.2795
3005 1 14.3591 4.81323 26.2795
51 1 7.92051 4.81323 15.7898
2913 2 12.7495 2.02522 28.2482
33 1 6.31085 2.02522 15.7898
3156 2 14.3591 4.81323 28.2482
3172 2 15.9688 7.60124 17.7585
3190 2 17.5785 10.3893 17.7585
3208 2 19.1881 13.1773 17.7585
3022 1 15.9688 7.60124 21.0347
3040 1 17.5785 10.3893 21.0347
3058 1 19.1881 13.1773 21.0347
3173 2 15.9688 7.60124 23.0033
69 1 9.53017 7.60124 15.7898
66 1 11.1398 4.81323 15.7898
72 1 7.9205 10.3893 15.7898
63 1 12.7495 2.02522 15.7898
312 1 11.1398 10.3893 15.7898
54 1 6.31085 7.60124 15.7898
48 1 9.53017 2.02522 15.7898
315 1 9.53016 13.1773 15.7898
309 1 12.7495 7.60124 15.7898
324 1 15.9688 7.60124 15.7898
306 1 14.3591 4.81323 15.7898
976 1 9.53016 15.0359 2.67775
991 1 12.7495 15.0359 2.67775
994 1 11.1398 17.824 2.67775
1009 1 14.3591 17.824 2.67775
1012 1 12.7495 20.612 2.67775
1027 1 15.9688 20.612 2.67775
1066 2 11.1398 15.9653 2.02397
1084 2 12.7495 18.7533 2.02397
916 1 11.1398 15.9653 5.30017
934 1 12.7495 18.7533 5.30017
977 1 9.53016 15.0359 7.92259
992 1 12.7495 15.0359 7.92259
995 1 11.1398 17.824 7.92259
1010 1 14.3591 17.824 7.92259
1013 1 12.7495 20.612 7.92259
1028 1 15.9688 20.612 7.92259
1067 2 11.1398 15.9653 7.26881
1085 2 12.7495 18.7533 7.26881
1177 2 15.9688 20.612 4.64639
1126 2 9.53016 15.0359 4.64639
1141 2 12.7495 15.0359 4.64639
1144 2 11.1398 17.824 4.64639
1159 2 14.3591 17.824 4.64639
1162 2 12.7495 20.612 4.64639
917 1 11.1398 15.9653 10.545
935 1 12.7495 18.7533 10.545
1127 2 9.53016 15.0359 9.89123
1142 2 12.7495 15.0359 9.89123
1145 2 11.1398 17.824 9.89123
1160 2 14.3591 17.824 9.89123
1163 2 12.7495 20.612 9.89123
1178 2 15.9688 20.612 9.89123
1410 2 27.2364 27.1173 12.5136
1392 2 25.6268 24.3293 12.5136
978 1 9.53016 15.0359 13.1674
993 1 12.7495 15.0359 13.1674
996 1 11.1398 17.824 13.1674
1011 1 14.3591 17.824 13.1674
1014 1 12.7495 20.612 13.1674
1029 1 15.9688 20.612 13.1674
1068 2 11.1398 15.9653 12.5136
1179 2 15.9688 20.612 15.1361
1086 2 12.7495 18.7533 12.5136
1128 2 9.53016 15.0359 15.1361
1143 2 12.7495 15.0359 15.1361
1146 2 11.1398 17.824 15.1361
1161 2 14.3591 17.824 15.1361
1164 2 12.7495 20.612 15.1361
1030 1 14.3591 23.4 2.67775
1045 1 17.5785 23.4 2.67775
1048 1 15.9688 26.188 2.67775
1102 2 14.3591 21.5413 2.02397
1120 2 15.9688 24.3293 2.02397
1288 1 19.1881 26.188 2.67775
1363 2 17.5785 27.1173 2.02397
952 1 14.3591 21.5413 5.30017
970 1 15.9688 24.3293 5.30017
1031 1 14.3591 23.4 7.92259
1046 1 17.5785 23.4 7.92259
1049 1 15.9688 26.188 7.92259
1198 2 15.9688 26.188 4.64639
1103 2 14.3591 21.5413 7.26881
1121 2 15.9688 24.3293 7.26881
1180 2 14.3591 23.4 4.64639
1195 2 17.5785 23.4 4.64639
1213 1 17.5785 27.1173 5.30017
1289 1 19.1881 26.188 7.92259
1364 2 17.5785 27.1173 7.26881
1438 2 19.1881 26.188 4.64639
953 1 14.3591 21.5413 10.545
971 1 15.9688 24.3293 10.545
1181 2 14.3591 23.4 9.89123
1196 2 17.5785 23.4 9.89123
1199 2 15.9688 26.188 9.89123
1214 1 17.5785 27.1173 10.545
1439 2 19.1881 26.188 9.89123
1391 2 25.6268 24.3293 7.26881
1373 2 24.0171 21.5413 7.26881
1032 1 14.3591 23.4 13.1674
1047 1 17.5785 23.4 13.1674
1050 1 15.9688 26.188 13.1674
1104 2 14.3591 21.5413 12.5136
1122 2 15.9688 24.3293 12.5136
1182 2 14.3591 23.4 15.1361
1197 2 17.5785 23.4 15.1361
1200 2 15.9688 26.188 15.1361
1258 1 27.2364 27.1173 5.30017
1290 1 19.1881 26.188 13.1674
1365 2 17.5785 27.1173 12.5136
1440 2 19.1881 26.188 15.1361
1006 1 15.9688 15.0359 2.67775
1021 1 19.1881 15.0359 2.67775
1024 1 17.5785 17.824 2.67775
1039 1 20.7978 17.824 2.67775
1042 1 19.1881 20.612 2.67775
1081 2 14.3591 15.9653 2.02397
1096 2 17.5785 15.9653 2.02397
1099 2 15.9688 18.7533 2.02397
1114 2 19.1881 18.7533 2.02397
1282 1 22.4074 20.612 2.67775
931 1 14.3591 15.9653 5.30017
946 1 17.5785 15.9653 5.30017
949 1 15.9688 18.7533 5.30017
964 1 19.1881 18.7533 5.30017
1007 1 15.9688 15.0359 7.92259
1022 1 19.1881 15.0359 7.92259
1025 1 17.5785 17.824 7.92259
1040 1 20.7978 17.824 7.92259
1043 1 19.1881 20.612 7.92259
1082 2 14.3591 15.9653 7.26881
1097 2 17.5785 15.9653 7.26881
1115 2 19.1881 18.7533 7.26881
1156 2 15.9688 15.0359 4.64639
1171 2 19.1881 15.0359 4.64639
1174 2 17.5785 17.824 4.64639
1192 2 19.1881 20.612 4.64639
1189 2 20.7978 17.824 4.64639
1100 2 15.9688 18.7533 7.26881
1283 1 22.4074 20.612 7.92259
1432 2 22.4074 20.612 4.64639
932 1 14.3591 15.9653 10.545
947 1 17.5785 15.9653 10.545
950 1 15.9688 18.7533 10.545
965 1 19.1881 18.7533 10.545
1157 2 15.9688 15.0359 9.89123
1172 2 19.1881 15.0359 9.89123
1175 2 17.5785 17.824 9.89123
1190 2 20.7978 17.824 9.89123
1193 2 19.1881 20.612 9.89123
1433 2 22.4074 20.612 9.89123
1374 2 24.0171 21.5413 12.5136
1240 1 25.6268 24.3293 5.30017
1259 1 27.2364 27.1173 10.545
1241 1 25.6268 24.3293 10.545
1008 1 15.9688 15.0359 13.1674
1023 1 19.1881 15.0359 13.1674
1026 1 17.5785 17.824 13.1674
1041 1 20.7978 17.824 13.1674
1044 1 19.1881 20.612 13.1674
1098 2 17.5785 15.9653 12.5136
1101 2 15.9688 18.7533 12.5136
1116 2 19.1881 18.7533 12.5136
1158 2 15.9688 15.0359 15.1361
1173 2 19.1881 15.0359 15.1361
1176 2 17.5785 17.824 15.1361
1194 2 19.1881 20.612 15.1361
1191 2 20.7978 17.824 15.1361
1083 2 14.3591 15.9653 12.5136
1284 1 22.4074 20.612 13.1674
1434 2 22.4074 20.612 15.1361
1117 2 17.5785 21.5413 2.02397
1285 1 20.7978 23.4 2.67775
1300 1 24.0171 23.4 2.67775
1303 1 22.4074 26.188 2.67775
1318 1 25.6268 26.188 2.67775
1357 2 20.7978 21.5413 2.02397
1360 2 19.1881 24.3293 2.02397
1375 2 22.4074 24.3293 2.02397
1378 2 20.7978 27.1173 2.02397
1393 2 24.0171 27.1173 2.02397
967 1 17.5785 21.5413 5.30017
1118 2 17.5785 21.5413 7.26881
1207 1 20.7978 21.5413 5.30017
1210 1 19.1881 24.3293 5.30017
1225 1 22.4074 24.3293 5.30017
1228 1 20.7978 27.1173 5.30017
1243 1 24.0171 27.1173 5.30017
1286 1 20.7978 23.4 7.92259
1301 1 24.0171 23.4 7.92259
1304 1 22.4074 26.188 7.92259
1319 1 25.6268 26.188 7.92259
1358 2 20.7978 21.5413 7.26881
1361 2 19.1881 24.3293 7.26881
1376 2 22.4074 24.3293 7.26881
1394 2 24.0171 27.1173 7.26881
1435 2 20.7978 23.4 4.64639
1450 2 24.0171 23.4 4.64639
1453 2 22.4074 26.188 4.64639
1468 2 25.6268 26.188 4.64639
1379 2 20.7978 27.1173 7.26881
968 1 17.5785 21.5413 10.545
1208 1 20.7978 21.5413 10.545
1211 1 19.1881 24.3293 10.545
1226 1 22.4074 24.3293 10.545
1229 1 20.7978 27.1173 10.545
1244 1 24.0171 27.1173 10.545
1436 2 20.7978 23.4 9.89123
1451 2 24.0171 23.4 9.89123
1454 2 22.4074 26.188 9.89123
1469 2 25.6268 26.188 9.89123
1223 1 24.0171 21.5413 10.545
1119 2 17.5785 21.5413 12.5136
1222 1 24.0171 21.5413 5.30017
1408 2 27.2364 27.1173 2.02397
1390 2 25.6268 24.3293 2.02397
1372 2 24.0171 21.5413 2.02397
1356 2 22.4074 18.7533 12.5136
1287 1 20.7978 23.4 13.1674
1302 1 24.0171 23.4 13.1674
1305 1 22.4074 26.188 13.1674
1320 1 25.6268 26.188 13.1674
1359 2 20.7978 21.5413 12.5136
1362 2 19.1881 24.3293 12.5136
1377 2 22.4074 24.3293 12.5136
1380 2 20.7978 27.1173 12.5136
1395 2 24.0171 27.1173 12.5136
1437 2 20.7978 23.4 15.1361
1452 2 24.0171 23.4 15.1361
1455 2 22.4074 26.188 15.1361
1470 2 25.6268 26.188 15.1361
1111 2 20.7978 15.9653 2.02397
1354 2 22.4074 18.7533 2.02397
961 1 20.7978 15.9653 5.30017
1112 2 20.7978 15.9653 7.26881
1204 1 22.4074 18.7533 5.30017
1355 2 22.4074 18.7533 7.26881
962 1 20.7978 15.9653 10.545
1205 1 22.4074 18.7533 10.545
1409 2 27.2364 27.1173 7.26881
1113 2 20.7978 15.9653 12.5136
3618 1 11.1398 15.9653 0.0553307
3636 1 12.7495 18.7533 0.0553308
3654 1 14.3591 21.5413 0.0553308
3672 1 15.9688 24.3293 0.0553307
3915 1 17.5785 27.1173 0.0553307
3633 1 14.3591 15.9653 0.0553308
3648 1 17.5785 15.9653 0.0553307
3651 1 15.9688 18.7533 0.0553308
3666 1 19.1881 18.7533 0.0553307
3669 1 17.5785 21.5413 0.0553307
3909 1 20.7978 21.5413 0.0553307
3912 1 19.1881 24.3293 0.0553306
3927 1 22.4074 24.3293 0.0553306
3930 1 20.7978 27.1173 0.0553307
3960 1 27.2364 27.1173 0.0553307
3942 1 25.6268 24.3293 0.0553307
3924 1 24.0171 21.5413 0.0553307
3945 1 24.0171 27.1173 0.0553307
3663 1 20.7978 15.9653 0.0553307
3906 1 22.4074 18.7533 0.0553307
3676 1 9.53016 15.0359 18.4123
3691 1 12.7495 15.0359 18.4123
3694 1 11.1398 17.824 18.4123
3709 1 14.3591 17.824 18.4123
3712 1 12.7495 20.612 18.4123
3727 1 15.9688 20.612 18.4123
3766 2 11.1398 15.9653 17.7585
3784 2 12.7495 18.7533 17.7585
3616 1 11.1398 15.9653 21.0347
3634 1 12.7495 18.7533 21.0347
3677 1 9.53016 15.0359 23.6571
3692 1 12.7495 15.0359 23.6571
3695 1 11.1398 17.824 23.6571
3710 1 14.3591 17.824 23.6571
3713 1 12.7495 20.612 23.6571
3728 1 15.9688 20.612 23.6571
3767 2 11.1398 15.9653 23.0033
3785 2 12.7495 18.7533 23.0033
3877 2 15.9688 20.612 20.3809
3826 2 9.53016 15.0359 20.3809
3841 2 12.7495 15.0359 20.3809
3844 2 11.1398 17.824 20.3809
3859 2 14.3591 17.824 20.3809
3862 2 12.7495 20.612 20.3809
3617 1 11.1398 15.9653 26.2795
3635 1 12.7495 18.7533 26.2795
3827 2 9.53016 15.0359 25.6257
3842 2 12.7495 15.0359 25.6257
3845 2 11.1398 17.824 25.6257
3860 2 14.3591 17.824 25.6257
3863 2 12.7495 20.612 25.6257
3878 2 15.9688 20.612 25.6257
963 1 20.7978 15.9653 15.7898
969 1 17.5785 21.5413 15.7898
3678 1 9.53016 15.0359 28.9019
3693 1 12.7495 15.0359 28.9019
3696 1 11.1398 17.824 28.9019
3711 1 14.3591 17.824 28.9019
3714 1 12.7495 20.612 28.9019
3729 1 15.9688 20.612 28.9019
3768 2 11.1398 15.9653 28.2482
3879 2 15.9688 20.612 30.8706
3786 2 12.7495 18.7533 28.2482
3828 2 9.53016 15.0359 30.8706
3843 2 12.7495 15.0359 30.8706
3846 2 11.1398 17.824 30.8706
3861 2 14.3591 17.824 30.8706
3864 2 12.7495 20.612 30.8706
3730 1 14.3591 23.4 18.4123
3745 1 17.5785 23.4 18.4123
3748 1 15.9688 26.188 18.4123
3802 2 14.3591 21.5413 17.7585
3820 2 15.9688 24.3293 17.7585
3988 1 19.1881 26.188 18.4123
4063 2 17.5785 27.1173 17.7585
3652 1 14.3591 21.5413 21.0347
3670 1 15.9688 24.3293 21.0347
3731 1 14.3591 23.4 23.6571
3746 1 17.5785 23.4 23.6571
3749 1 15.9688 26.188 23.6571
3898 2 15.9688 26.188 20.3809
3803 2 14.3591 21.5413 23.0033
3821 2 15.9688 24.3293 23.0033
3880 2 14.3591 23.4 20.3809
3895 2 17.5785 23.4 20.3809
3913 1 17.5785 27.1173 21.0347
3989 1 19.1881 26.188 23.6571
4064 2 17.5785 27.1173 23.0033
4138 2 19.1881 26.188 20.3809
3653 1 14.3591 21.5413 26.2795
3671 1 15.9688 24.3293 26.2795
3881 2 14.3591 23.4 25.6257
3896 2 17.5785 23.4 25.6257
3899 2 15.9688 26.188 25.6257
3914 1 17.5785 27.1173 26.2795
4139 2 19.1881 26.188 25.6257
966 1 19.1881 18.7533 15.7898
951 1 15.9688 18.7533 15.7898
3732 1 14.3591 23.4 28.9019
3747 1 17.5785 23.4 28.9019
3750 1 15.9688 26.188 28.9019
3804 2 14.3591 21.5413 28.2482
3822 2 15.9688 24.3293 28.2482
3882 2 14.3591 23.4 30.8706
3897 2 17.5785 23.4 30.8706
3900 2 15.9688 26.188 30.8706
948 1 17.5785 15.9653 15.7898
3990 1 19.1881 26.188 28.9019
4065 2 17.5785 27.1173 28.2482
4140 2 19.1881 26.188 30.8706
3706 1 15.9688 15.0359 18.4123
3721 1 19.1881 15.0359 18.4123
3724 1 17.5785 17.824 18.4123
3739 1 20.7978 17.824 18.4123
3742 1 19.1881 20.612 18.4123
3781 2 14.3591 15.9653 17.7585
3796 2 17.5785 15.9653 17.7585
3799 2 15.9688 18.7533 17.7585
3814 2 19.1881 18.7533 17.7585
3982 1 22.4074 20.612 18.4123
3631 1 14.3591 15.9653 21.0347
3646 1 17.5785 15.9653 21.0347
3649 1 15.9688 18.7533 21.0347
3664 1 19.1881 18.7533 21.0347
3707 1 15.9688 15.0359 23.6571
3722 1 19.1881 15.0359 23.6571
3725 1 17.5785 17.824 23.6571
3740 1 20.7978 17.824 23.6571
3743 1 19.1881 20.612 23.6571
3782 2 14.3591 15.9653 23.0033
3797 2 17.5785 15.9653 23.0033
3815 2 19.1881 18.7533 23.0033
3856 2 15.9688 15.0359 20.3809
3871 2 19.1881 15.0359 20.3809
3874 2 17.5785 17.824 20.3809
3892 2 19.1881 20.612 20.3809
3889 2 20.7978 17.824 20.3809
3800 2 15.9688 18.7533 23.0033
3983 1 22.4074 20.612 23.6571
4132 2 22.4074 20.612 20.3809
3632 1 14.3591 15.9653 26.2795
3647 1 17.5785 15.9653 26.2795
3650 1 15.9688 18.7533 26.2795
3665 1 19.1881 18.7533 26.2795
3857 2 15.9688 15.0359 25.6257
3872 2 19.1881 15.0359 25.6257
3875 2 17.5785 17.824 25.6257
3890 2 20.7978 17.824 25.6257
3893 2 19.1881 20.612 25.6257
4133 2 22.4074 20.612 25.6257
972 1 15.9688 24.3293 15.7898
954 1 14.3591 21.5413 15.7898
933 1 14.3591 15.9653 15.7898
936 1 12.7495 18.7533 15.7898
3708 1 15.9688 15.0359 28.9019
3723 1 19.1881 15.0359 28.9019
3726 1 17.5785 17.824 28.9019
3741 1 20.7978 17.824 28.9019
3744 1 19.1881 20.612 28.9019
3798 2 17.5785 15.9653 28.2482
3801 2 15.9688 18.7533 28.2482
3816 2 19.1881 18.7533 28.2482
3858 2 15.9688 15.0359 30.8706
3873 2 19.1881 15.0359 30.8706
3876 2 17.5785 17.824 30.8706
3894 2 19.1881 20.612 30.8706
3891 2 20.7978 17.824 30.8706
3783 2 14.3591 15.9653 28.2482
3984 1 22.4074 20.612 28.9019
4134 2 22.4074 20.612 30.8706
3817 2 17.5785 21.5413 17.7585
3985 1 20.7978 23.4 18.4123
4000 1 24.0171 23.4 18.4123
4003 1 22.4074 26.188 18.4123
4018 1 25.6268 26.188 18.4123
4057 2 20.7978 21.5413 17.7585
4060 2 19.1881 24.3293 17.7585
4075 2 22.4074 24.3293 17.7585
4078 2 20.7978 27.1173 17.7585
4093 2 24.0171 27.1173 17.7585
3667 1 17.5785 21.5413 21.0347
3818 2 17.5785 21.5413 23.0033
3907 1 20.7978 21.5413 21.0347
3910 1 19.1881 24.3293 21.0347
3925 1 22.4074 24.3293 21.0347
3928 1 20.7978 27.1173 21.0347
3943 1 24.0171 27.1173 21.0347
3986 1 20.7978 23.4 23.6571
4001 1 24.0171 23.4 23.6571
4004 1 22.4074 26.188 23.6571
4019 1 25.6268 26.188 23.6571
4058 2 20.7978 21.5413 23.0033
4061 2 19.1881 24.3293 23.0033
4076 2 22.4074 24.3293 23.0033
4094 2 24.0171 27.1173 23.0033
4135 2 20.7978 23.4 20.3809
4150 2 24.0171 23.4 20.3809
4153 2 22.4074 26.188 20.3809
4168 2 25.6268 26.188 20.3809
4079 2 20.7978 27.1173 23.0033
3668 1 17.5785 21.5413 26.2795
3908 1 20.7978 21.5413 26.2795
3911 1 19.1881 24.3293 26.2795
3926 1 22.4074 24.3293 26.2795
3929 1 20.7978 27.1173 26.2795
3944 1 24.0171 27.1173 26.2795
4136 2 20.7978 23.4 25.6257
4151 2 24.0171 23.4 25.6257
4154 2 22.4074 26.188 25.6257
4169 2 25.6268 26.188 25.6257
918 1 11.1398 15.9653 15.7898
3819 2 17.5785 21.5413 28.2482
4110 2 27.2364 27.1173 28.2482
4092 2 25.6268 24.3293 28.2482
4074 2 24.0171 21.5413 28.2482
3959 1 27.2364 27.1173 26.2795
3941 1 25.6268 24.3293 26.2795
3987 1 20.7978 23.4 28.9019
4002 1 24.0171 23.4 28.9019
4005 1 22.4074 26.188 28.9019
4020 1 25.6268 26.188 28.9019
4059 2 20.7978 21.5413 28.2482
4062 2 19.1881 24.3293 28.2482
4077 2 22.4074 24.3293 28.2482
4080 2 20.7978 27.1173 28.2482
4095 2 24.0171 27.1173 28.2482
4137 2 20.7978 23.4 30.8706
4152 2 24.0171 23.4 30.8706
4155 2 22.4074 26.188 30.8706
4170 2 25.6268 26.188 30.8706
3811 2 20.7978 15.9653 17.7585
4054 2 22.4074 18.7533 17.7585
3661 1 20.7978 15.9653 21.0347
3812 2 20.7978 15.9653 23.0033
3904 1 22.4074 18.7533 21.0347
4055 2 22.4074 18.7533 23.0033
3662 1 20.7978 15.9653 26.2795
3905 1 22.4074 18.7533 26.2795
3923 1 24.0171 21.5413 26.2795
3813 2 20.7978 15.9653 28.2482
4109 2 27.2364 27.1173 23.0033
4056 2 22.4074 18.7533 28.2482
4072 2 24.0171 21.5413 17.7585
4090 2 25.6268 24.3293 17.7585
4108 2 27.2364 27.1173 17.7585
3922 1 24.0171 21.5413 21.0347
3940 1 25.6268 24.3293 21.0347
3958 1 27.2364 27.1173 21.0347
4073 2 24.0171 21.5413 23.0033
4091 2 25.6268 24.3293 23.0033
1260 1 27.2364 27.1173 15.7898
1242 1 25.6268 24.3293 15.7898
1215 1 17.5785 27.1173 15.7898
1224 1 24.0171 21.5413 15.7898
1209 1 20.7978 21.5413 15.7898
1212 1 19.1881 24.3293 15.7898
1227 1 22.4074 24.3293 15.7898
1230 1 20.7978 27.1173 15.7898
1245 1 24.0171 27.1173 15.7898
1206 1 22.4074 18.7533 15.7898
1876 1 17.5785 28.976 2.67775
1891 1 20.7978 28.976 2.67775
1894 1 19.1881 31.764 2.67775
1909 1 22.4074 31.764 2.67775
1912 1 20.7978 34.552 2.67775
1927 1 24.0171 34.552 2.67775
1966 2 19.1881 29.9053 2.02397
1984 2 20.7978 32.6933 2.02397
1816 1 19.1881 29.9053 5.30017
1834 1 20.7978 32.6933 5.30017
1877 1 17.5785 28.976 7.92259
1892 1 20.7978 28.976 7.92259
1895 1 19.1881 31.764 7.92259
1910 1 22.4074 31.764 7.92259
1913 1 20.7978 34.552 7.92259
1928 1 24.0171 34.552 7.92259
1967 2 19.1881 29.9053 7.26881
1985 2 20.7978 32.6933 7.26881