ITEM: TIMESTEP
10114
ITEM: NUMBER OF ATOMS
5400
ITEM: BOX BOUNDS xy xz yz pp pp pp
-1.2274701360000000e-06 7.2434683890000002e+01 2.4144874590000001e+01
-1.7284199339999999e-06 4.1820163800000003e+01 -1.2274701360000000e-06
0.0000000000000000e+00 3.1469031000000001e+01 -1.7284199339999999e-06
ITEM: ATOMS id type x y z
76 1 1.43935 1.15131 2.69647
91 1 4.65867 1.15131 2.69647
94 1 3.04901 3.93932 2.69647
109 1 6.26833 3.93932 2.69647
112 1 4.65867 6.72733 2.69647
127 1 7.87799 6.72733 2.69647
166 2 3.04901 2.08064 2.04269
184 2 4.65867 4.86865 2.04269
16 1 3.04901 2.08064 5.31889
510 2 19.1456 13.2327 12.5324
77 1 1.43935 1.15131 7.94131
92 1 4.65867 1.15131 7.94131
95 1 3.04901 3.93932 7.94131
110 1 6.26833 3.93932 7.94131
113 1 4.65867 6.72733 7.94131
128 1 7.87799 6.72733 7.94131
167 2 3.04901 2.08064 7.28753
185 2 4.65867 4.86865 7.28753
277 2 7.87799 6.72733 4.66511
226 2 1.43935 1.15131 4.66511
241 2 4.65867 1.15131 4.66511
244 2 3.04901 3.93932 4.66511
259 2 6.26833 3.93932 4.66511
262 2 4.65867 6.72733 4.66511
17 1 3.04901 2.08064 10.5637
35 1 4.65867 4.86865 10.5637
227 2 1.43935 1.15131 9.90995
242 2 4.65867 1.15131 9.90995
245 2 3.04901 3.93932 9.90995
260 2 6.26833 3.93932 9.90995
263 2 4.65867 6.72733 9.90995
278 2 7.87799 6.72733 9.90995
37 1 4.65867 4.86865 5.31889
492 2 17.5359 10.4447 12.5324
78 1 1.43935 1.15131 13.1861
93 1 4.65867 1.15131 13.1861
96 1 3.04901 3.93932 13.1861
111 1 6.26833 3.93932 13.1861
114 1 4.65867 6.72733 13.1861
129 1 7.87799 6.72733 13.1861
168 2 3.04901 2.08064 12.5324
279 2 7.87799 6.72733 15.1548
186 2 4.65867 4.86865 12.5324
228 2 1.43935 1.15131 15.1548
243 2 4.65867 1.15131 15.1548
246 2 3.04901 3.93932 15.1548
261 2 6.26833 3.93932 15.1548
264 2 4.65867 6.72733 15.1548
130 1 6.26833 9.51534 2.69647
145 1 9.48765 9.51534 2.69647
148 1 7.87798 12.3034 2.69647
202 2 6.26833 7.65666 2.04269
220 2 7.87799 10.4447 2.04269
388 1 11.0973 12.3034 2.69647
463 2 9.48764 13.2327 2.04269
52 1 6.26833 7.65666 5.31889
70 1 7.87799 10.4447 5.31889
131 1 6.26833 9.51534 7.94131
146 1 9.48765 9.51534 7.94131
149 1 7.87798 12.3034 7.94131
298 2 7.87798 12.3034 4.66511
203 2 6.26833 7.65666 7.28753
221 2 7.87799 10.4447 7.28753
280 2 6.26833 9.51534 4.66511
295 2 9.48765 9.51534 4.66511
313 1 9.48764 13.2327 5.31889
389 1 11.0973 12.3034 7.94131
464 2 9.48764 13.2327 7.28753
538 2 11.0973 12.3034 4.66511
53 1 6.26833 7.65666 10.5637
71 1 7.87799 10.4447 10.5637
281 2 6.26833 9.51534 9.90995
296 2 9.48765 9.51534 9.90995
299 2 7.87798 12.3034 9.90995
314 1 9.48764 13.2327 10.5637
539 2 11.0973 12.3034 9.90995
474 2 15.9263 7.65666 12.5324
472 2 15.9263 7.65666 2.04269
132 1 6.26833 9.51534 13.1861
147 1 9.48765 9.51534 13.1861
150 1 7.87798 12.3033 13.1861
204 2 6.26833 7.65666 12.5324
222 2 7.87799 10.4447 12.5324
282 2 6.26833 9.51534 15.1548
297 2 9.48765 9.51534 15.1548
300 2 7.87798 12.3033 15.1548
341 1 17.5359 10.4447 10.5637
390 1 11.0973 12.3033 13.1861
465 2 9.48764 13.2327 12.5324
540 2 11.0973 12.3033 15.1548
106 1 7.87799 1.15131 2.69647
121 1 11.0973 1.15131 2.69647
124 1 9.48765 3.93932 2.69647
139 1 12.707 3.93932 2.69647
142 1 11.0973 6.72733 2.69647
181 2 6.26833 2.08064 2.04269
196 2 9.48765 2.08064 2.04269
199 2 7.87799 4.86865 2.04269
214 2 11.0973 4.86865 2.04269
382 1 14.3166 6.72733 2.69647
31 1 6.26833 2.08064 5.31889
46 1 9.48765 2.08064 5.31889
49 1 7.87799 4.86865 5.31889
64 1 11.0973 4.86865 5.31889
107 1 7.87799 1.15131 7.94131
122 1 11.0973 1.15131 7.94131
125 1 9.48765 3.93932 7.94131
140 1 12.707 3.93932 7.94131
143 1 11.0973 6.72733 7.94131
182 2 6.26833 2.08064 7.28753
197 2 9.48765 2.08064 7.28753
215 2 11.0973 4.86865 7.28753
256 2 7.87799 1.15131 4.66511
271 2 11.0973 1.15131 4.66511
274 2 9.48765 3.93932 4.66511
292 2 11.0973 6.72733 4.66511
289 2 12.707 3.93932 4.66511
200 2 7.87799 4.86865 7.28753
383 1 14.3166 6.72733 7.94131
532 2 14.3166 6.72733 4.66511
32 1 6.26833 2.08064 10.5637
47 1 9.48765 2.08064 10.5637
50 1 7.87799 4.86865 10.5637
65 1 11.0973 4.86865 10.5637
257 2 7.87799 1.15131 9.90995
272 2 11.0973 1.15131 9.90995
275 2 9.48765 3.93932 9.90995
290 2 12.707 3.93932 9.90995
293 2 11.0973 6.72733 9.90995
533 2 14.3166 6.72733 9.90995
456 2 14.3166 4.86865 12.5324
323 1 15.9263 7.65666 10.5637
509 2 19.1456 13.2327 7.28753
491 2 17.5359 10.4447 7.28753
108 1 7.87799 1.15131 13.1861
123 1 11.0973 1.15131 13.1861
126 1 9.48765 3.93932 13.1861
141 1 12.707 3.93932 13.1861
144 1 11.0973 6.72733 13.1861
198 2 9.48765 2.08064 12.5324
201 2 7.87799 4.86865 12.5324
216 2 11.0973 4.86865 12.5324
258 2 7.87799 1.15131 15.1548
273 2 11.0973 1.15131 15.1548
276 2 9.48765 3.93932 15.1548
294 2 11.0973 6.72733 15.1548
291 2 12.707 3.93932 15.1548
183 2 6.26833 2.08064 12.5324
384 1 14.3166 6.72733 13.1861
534 2 14.3166 6.72733 15.1548
217 2 9.48765 7.65666 2.04269
385 1 12.707 9.51534 2.69647
400 1 15.9263 9.51534 2.69647
403 1 14.3166 12.3034 2.69647
418 1 17.5359 12.3034 2.69647
457 2 12.707 7.65666 2.04269
460 2 11.0973 10.4447 2.04269
475 2 14.3166 10.4447 2.04269
478 2 12.707 13.2327 2.04269
493 2 15.9263 13.2327 2.04269
67 1 9.48765 7.65666 5.31889
218 2 9.48765 7.65666 7.28753
307 1 12.707 7.65666 5.31889
310 1 11.0973 10.4447 5.31889
325 1 14.3166 10.4447 5.31889
328 1 12.707 13.2327 5.31889
343 1 15.9263 13.2327 5.31889
386 1 12.707 9.51534 7.94131
401 1 15.9263 9.51534 7.94131
404 1 14.3166 12.3034 7.94131
419 1 17.5359 12.3034 7.94131
458 2 12.707 7.65666 7.28753
461 2 11.0973 10.4447 7.28753
476 2 14.3166 10.4447 7.28753
494 2 15.9263 13.2327 7.28753
535 2 12.707 9.51534 4.66511
550 2 15.9263 9.51534 4.66511
553 2 14.3166 12.3034 4.66511
568 2 17.5359 12.3034 4.66511
479 2 12.707 13.2327 7.28753
68 1 9.48765 7.65666 10.5637
308 1 12.707 7.65666 10.5637
311 1 11.0973 10.4447 10.5637
326 1 14.3166 10.4447 10.5637
329 1 12.707 13.2327 10.5637
344 1 15.9263 13.2327 10.5637
536 2 12.707 9.51534 9.90995
551 2 15.9263 9.51534 9.90995
554 2 14.3166 12.3033 9.90995
569 2 17.5359 12.3033 9.90995
359 1 19.1456 13.2327 10.5637
219 2 9.48765 7.65666 12.5324
473 2 15.9263 7.65666 7.28753
358 1 19.1456 13.2327 5.31889
340 1 17.5359 10.4447 5.31889
322 1 15.9263 7.65666 5.31889
3006 1 14.3166 4.86865 0.0740515
387 1 12.707 9.51534 13.1861
402 1 15.9263 9.51534 13.1861
405 1 14.3166 12.3033 13.1861
420 1 17.5359 12.3033 13.1861
459 2 12.707 7.65666 12.5324
462 2 11.0973 10.4447 12.5324
477 2 14.3166 10.4447 12.5324
480 2 12.707 13.2327 12.5324
495 2 15.9263 13.2327 12.5324
537 2 12.707 9.51534 15.1548
552 2 15.9263 9.51534 15.1548
555 2 14.3166 12.3033 15.1548
570 2 17.5359 12.3033 15.1548
211 2 12.707 2.08064 2.04269
454 2 14.3166 4.86865 2.04269
61 1 12.707 2.08064 5.31889
212 2 12.707 2.08064 7.28753
304 1 14.3166 4.86865 5.31889
455 2 14.3166 4.86865 7.28753
62 1 12.707 2.08064 10.5637
305 1 14.3166 4.86865 10.5637
508 2 19.1456 13.2327 2.04269
213 2 12.707 2.08064 12.5324
490 2 17.5359 10.4447 2.04269
2763 1 12.707 2.08064 0.0740515
2754 1 6.26833 7.65667 0.0740513
3015 1 9.48764 13.2327 0.0740515
2772 1 7.87799 10.4447 0.0740514
2748 1 9.48765 2.08064 0.0740514
3042 1 17.5359 10.4447 0.0740515
3045 1 15.9263 13.2327 0.0740516
3030 1 12.707 13.2327 0.0740516
2736 1 4.65867 4.86865 0.0740512
2733 1 6.26833 2.08064 0.0740513
2718 1 3.04901 2.08064 0.0740513
3060 1 19.1456 13.2327 0.0740515
2751 1 7.87799 4.86865 0.0740512
2769 1 9.48765 7.65667 0.0740513
3009 1 12.707 7.65666 0.0740514
3012 1 11.0973 10.4447 0.0740515
2766 1 11.0973 4.86865 0.0740514
3024 1 15.9263 7.65666 0.0740515
3027 1 14.3166 10.4447 0.0740515
2776 1 1.43935 1.15131 18.431
2791 1 4.65867 1.15131 18.431
2794 1 3.04901 3.93932 18.431
2809 1 6.26833 3.93932 18.431
2812 1 4.65867 6.72733 18.431
2827 1 7.87799 6.72733 18.431
2866 2 3.04901 2.08064 17.7772
2884 2 4.65867 4.86865 17.7772
2716 1 3.04901 2.08064 21.0534
2734 1 4.65867 4.86865 21.0534
2777 1 1.43935 1.15131 23.6758
2792 1 4.65867 1.15131 23.6758
2795 1 3.04901 3.93932 23.6758
2810 1 6.26833 3.93932 23.6758
2813 1 4.65867 6.72733 23.6758
2828 1 7.87799 6.72733 23.6758
2867 2 3.04901 2.08064 23.022
2885 2 4.65867 4.86865 23.022
2977 2 7.87799 6.72733 20.3996
2926 2 1.43935 1.15131 20.3996
2941 2 4.65867 1.15131 20.3996
2944 2 3.04901 3.93932 20.3996
2959 2 6.26833 3.93932 20.3996
2962 2 4.65867 6.72733 20.3996
2717 1 3.04901 2.08064 26.2982
2735 1 4.65867 4.86865 26.2982
2927 2 1.43935 1.15131 25.6445
2942 2 4.65867 1.15131 25.6445
2945 2 3.04901 3.93932 25.6445
2960 2 6.26833 3.93932 25.6445
2963 2 4.65867 6.72733 25.6445
2978 2 7.87799 6.72733 25.6445
3210 2 19.1456 13.2327 28.2669
33 1 6.26833 2.08064 15.8086
2778 1 1.43935 1.15131 28.9207
2793 1 4.65867 1.15131 28.9207
2796 1 3.04901 3.93932 28.9207
2811 1 6.26833 3.93932 28.9207
2814 1 4.65867 6.72733 28.9207
2829 1 7.87799 6.72733 28.9207
2868 2 3.04901 2.08064 28.2669
2979 2 7.87799 6.72733 30.8893
2886 2 4.65867 4.86865 28.2669
2928 2 1.43935 1.15131 30.8893
2943 2 4.65867 1.15131 30.8893
2946 2 3.04901 3.93932 30.8893
2961 2 6.26833 3.93932 30.8893
2964 2 4.65867 6.72733 30.8893
2830 1 6.26833 9.51534 18.431
2845 1 9.48765 9.51534 18.431
2848 1 7.87798 12.3033 18.431
2902 2 6.26833 7.65666 17.7772
2920 2 7.87799 10.4447 17.7772
3088 1 11.0973 12.3033 18.431
3163 2 9.48764 13.2327 17.7772
2752 1 6.26833 7.65666 21.0534
2770 1 7.87799 10.4447 21.0534
2831 1 6.26832 9.51534 23.6758
2846 1 9.48765 9.51534 23.6758
2849 1 7.87798 12.3033 23.6758
2998 2 7.87798 12.3033 20.3996
2903 2 6.26833 7.65666 23.022
2921 2 7.87798 10.4447 23.022
2980 2 6.26832 9.51534 20.3996
2995 2 9.48765 9.51534 20.3996
3013 1 9.48764 13.2327 21.0534
3089 1 11.0973 12.3033 23.6758
3164 2 9.48764 13.2327 23.022
3238 2 11.0973 12.3033 20.3996
2753 1 6.26833 7.65666 26.2982
2771 1 7.87798 10.4447 26.2982
2981 2 6.26832 9.51534 25.6445
2996 2 9.48765 9.51534 25.6445
2999 2 7.87798 12.3033 25.6445
3014 1 9.48764 13.2327 26.2982
3239 2 11.0973 12.3033 25.6445
315 1 9.48764 13.2327 15.8086
360 1 19.1456 13.2327 15.8086
2832 1 6.26832 9.51534 28.9207
2847 1 9.48765 9.51534 28.9207
2850 1 7.87798 12.3033 28.9207
2904 2 6.26833 7.65666 28.2669
2922 2 7.87798 10.4447 28.2669
2982 2 6.26832 9.51534 30.8893
2997 2 9.48765 9.51534 30.8893
3000 2 7.87798 12.3033 30.8893
63 1 12.707 2.08064 15.8086
3090 1 11.0973 12.3033 28.9207
3165 2 9.48764 13.2327 28.2669
3240 2 11.0973 12.3033 30.8893
2806 1 7.87799 1.15131 18.431
2821 1 11.0973 1.15131 18.431
2824 1 9.48765 3.93932 18.431
2839 1 12.707 3.93932 18.431
2842 1 11.0973 6.72733 18.431
2881 2 6.26833 2.08064 17.7772
2896 2 9.48765 2.08064 17.7772
2899 2 7.87799 4.86865 17.7772
2914 2 11.0973 4.86865 17.7772
3082 1 14.3166 6.72733 18.431
2731 1 6.26833 2.08064 21.0534
2746 1 9.48765 2.08064 21.0534
2749 1 7.87799 4.86865 21.0534
2764 1 11.0973 4.86865 21.0534
2807 1 7.87799 1.15131 23.6758
2822 1 11.0973 1.15131 23.6758
2825 1 9.48765 3.93932 23.6758
2840 1 12.707 3.93932 23.6758
2843 1 11.0973 6.72733 23.6758
2882 2 6.26833 2.08064 23.022
2897 2 9.48765 2.08064 23.022
2915 2 11.0973 4.86865 23.022
2956 2 7.87799 1.15131 20.3996
2971 2 11.0973 1.15131 20.3996
2974 2 9.48765 3.93932 20.3996
2992 2 11.0973 6.72733 20.3996
2989 2 12.707 3.93932 20.3996
2900 2 7.87799 4.86865 23.022
3083 1 14.3166 6.72733 23.6758
3232 2 14.3166 6.72733 20.3996
2732 1 6.26833 2.08064 26.2982
2747 1 9.48765 2.08064 26.2982
2750 1 7.87799 4.86865 26.2982
2765 1 11.0973 4.86865 26.2982
2957 2 7.87799 1.15131 25.6445
2972 2 11.0973 1.15131 25.6445
2975 2 9.48765 3.93932 25.6445
2990 2 12.707 3.93932 25.6445
2993 2 11.0973 6.72733 25.6445
3233 2 14.3166 6.72733 25.6445
3192 2 17.5359 10.4447 28.2669
3023 1 15.9263 7.65666 26.2982
3174 2 15.9263 7.65666 28.2669
3209 2 19.1456 13.2327 23.022
2808 1 7.87799 1.15131 28.9207
2823 1 11.0973 1.15131 28.9207
2826 1 9.48765 3.93932 28.9207
2841 1 12.707 3.93932 28.9207
2844 1 11.0973 6.72733 28.9207
2898 2 9.48765 2.08064 28.2669
2901 2 7.87799 4.86865 28.2669
2916 2 11.0973 4.86865 28.2669
2958 2 7.87799 1.15131 30.8893
2973 2 11.0973 1.15131 30.8893
2976 2 9.48765 3.93932 30.8893
2994 2 11.0973 6.72733 30.8893
2991 2 12.707 3.93932 30.8893
2883 2 6.26833 2.08064 28.2669
3084 1 14.3166 6.72733 28.9207
3234 2 14.3166 6.72733 30.8893
2917 2 9.48765 7.65666 17.7772
3085 1 12.707 9.51534 18.431
3100 1 15.9263 9.51534 18.431
3103 1 14.3166 12.3033 18.431
3118 1 17.5359 12.3033 18.431
3157 2 12.707 7.65666 17.7772
3160 2 11.0973 10.4447 17.7772
3175 2 14.3166 10.4447 17.7772
3178 2 12.707 13.2327 17.7772
3193 2 15.9263 13.2327 17.7772
2767 1 9.48765 7.65666 21.0534
2918 2 9.48765 7.65666 23.022
3007 1 12.707 7.65666 21.0534
3010 1 11.0973 10.4447 21.0534
3025 1 14.3166 10.4447 21.0534
3028 1 12.707 13.2327 21.0534
3043 1 15.9263 13.2327 21.0534
3086 1 12.707 9.51534 23.6758
3101 1 15.9263 9.51534 23.6758
3104 1 14.3166 12.3033 23.6758
3119 1 17.5359 12.3033 23.6758
3158 2 12.707 7.65666 23.022
3161 2 11.0973 10.4447 23.022
3176 2 14.3166 10.4447 23.022
3194 2 15.9263 13.2327 23.022
3235 2 12.707 9.51534 20.3996
3250 2 15.9263 9.51534 20.3996
3253 2 14.3166 12.3033 20.3996
3268 2 17.5359 12.3033 20.3996
3179 2 12.707 13.2327 23.022
2768 1 9.48765 7.65666 26.2982
3008 1 12.707 7.65666 26.2982
3011 1 11.0973 10.4447 26.2982
3026 1 14.3166 10.4447 26.2982
3029 1 12.707 13.2327 26.2982
3044 1 15.9263 13.2327 26.2982
3236 2 12.707 9.51534 25.6445
3251 2 15.9263 9.51534 25.6445
3254 2 14.3166 12.3033 25.6445
3269 2 17.5359 12.3033 25.6445
3191 2 17.5359 10.4447 23.022
2919 2 9.48765 7.65666 28.2669
3173 2 15.9263 7.65666 23.022
48 1 9.48765 2.08064 15.8086
3058 1 19.1456 13.2327 21.0534
3040 1 17.5359 10.4447 21.0534
3059 1 19.1456 13.2327 26.2982
3087 1 12.707 9.51534 28.9207
3102 1 15.9263 9.51534 28.9207
3105 1 14.3166 12.3033 28.9207
3120 1 17.5359 12.3033 28.9207
3159 2 12.707 7.65666 28.2669
3162 2 11.0973 10.4447 28.2669
3177 2 14.3166 10.4447 28.2669
3180 2 12.707 13.2327 28.2669
3195 2 15.9263 13.2327 28.2669
3237 2 12.707 9.51534 30.8893
3252 2 15.9263 9.51534 30.8893
3255 2 14.3166 12.3033 30.8893
3270 2 17.5359 12.3033 30.8893
2911 2 12.707 2.08064 17.7772
3154 2 14.3166 4.86865 17.7772
2761 1 12.707 2.08064 21.0534
2912 2 12.707 2.08064 23.022
3004 1 14.3166 4.86865 21.0534
3155 2 14.3166 4.86865 23.022
2762 1 12.707 2.08064 26.2982
3005 1 14.3166 4.86865 26.2982
3022 1 15.9263 7.65666 21.0534
2913 2 12.707 2.08064 28.2669
3041 1 17.5359 10.4447 26.2982
3156 2 14.3166 4.86865 28.2669
3172 2 15.9263 7.65666 17.7772
3190 2 17.5359 10.4447 17.7772
3208 2 19.1456 13.2327 17.7772
306 1 14.3166 4.86865 15.8086
327 1 14.3166 10.4447 15.8086
312 1 11.0973 10.4447 15.8086
342 1 17.5359 10.4447 15.8086
345 1 15.9263 13.2327 15.8086
324 1 15.9263 7.65666 15.8086
66 1 11.0973 4.86865 15.8086
309 1 12.707 7.65666 15.8086
330 1 12.707 13.2327 15.8086
54 1 6.26833 7.65666 15.8086
69 1 9.48765 7.65666 15.8086
18 1 3.04901 2.08064 15.8086
36 1 4.65867 4.86865 15.8086
72 1 7.87799 10.4447 15.8086
51 1 7.87799 4.86865 15.8086
976 1 9.48764 15.0914 2.69647
991 1 12.707 15.0914 2.69647
994 1 11.0973 17.8794 2.69647
1009 1 14.3166 17.8794 2.69647
1012 1 12.707 20.6674 2.69647
1027 1 15.9263 20.6674 2.69647
1066 2 11.0973 16.0207 2.04269
1084 2 12.707 18.8087 2.04269
916 1 11.0973 16.0207 5.31889
934 1 12.707 18.8087 5.31889
977 1 9.48764 15.0914 7.94131
992 1 12.707 15.0914 7.94131
995 1 11.0973 17.8794 7.94131
1010 1 14.3166 17.8794 7.94131
1013 1 12.707 20.6674 7.94131
1028 1 15.9263 20.6674 7.94131
1067 2 11.0973 16.0207 7.28753
1085 2 12.707 18.8087 7.28753
1177 2 15.9263 20.6674 4.66511
1126 2 9.48764 15.0914 4.66511
1141 2 12.707 15.0914 4.66511
1144 2 11.0973 17.8794 4.66511
1159 2 14.3166 17.8794 4.66511
1162 2 12.707 20.6674 4.66511
917 1 11.0973 16.0207 10.5637
935 1 12.707 18.8087 10.5637
1127 2 9.48764 15.0914 9.90995
1142 2 12.707 15.0914 9.90995
1145 2 11.0973 17.8794 9.90995
1160 2 14.3166 17.8794 9.90995
1163 2 12.707 20.6674 9.90995
1178 2 15.9263 20.6674 9.90995
1410 2 27.1939 27.1727 12.5324
1392 2 25.5842 24.3847 12.5324
978 1 9.48764 15.0914 13.1861
993 1 12.707 15.0914 13.1861
996 1 11.0973 17.8794 13.1861
1011 1 14.3166 17.8794 13.1861
1014 1 12.707 20.6674 13.1861
1029 1 15.9263 20.6674 13.1861
1068 2 11.0973 16.0207 12.5324
1179 2 15.9263 20.6674 15.1548
1086 2 12.707 18.8087 12.5324
1128 2 9.48764 15.0914 15.1548
1143 2 12.707 15.0914 15.1548
1146 2 11.0973 17.8794 15.1548
1161 2 14.3166 17.8794 15.1548
1164 2 12.707 20.6674 15.1548
1030 1 14.3166 23.4554 2.69647
1045 1 17.5359 23.4554 2.69647
1048 1 15.9263 26.2434 2.69647
1102 2 14.3166 21.5967 2.04269
1120 2 15.9263 24.3847 2.04269
1288 1 19.1456 26.2434 2.69647
1363 2 17.5359 27.1727 2.04269
952 1 14.3166 21.5967 5.31889
970 1 15.9263 24.3847 5.31889
1031 1 14.3166 23.4554 7.94131
1046 1 17.5359 23.4554 7.94131
1049 1 15.9263 26.2434 7.94131
1198 2 15.9263 26.2434 4.66511
1103 2 14.3166 21.5967 7.28753
1121 2 15.9263 24.3847 7.28753
1180 2 14.3166 23.4554 4.66511
1195 2 17.5359 23.4554 4.66511
1213 1 17.5359 27.1727 5.31889
1289 1 19.1456 26.2434 7.94131
1364 2 17.5359 27.1727 7.28753
1438 2 19.1456 26.2434 4.66511
953 1 14.3166 21.5967 10.5637
971 1 15.9263 24.3847 10.5637
1181 2 14.3166 23.4554 9.90995
1196 2 17.5359 23.4554 9.90995
1199 2 15.9263 26.2434 9.90995
1214 1 17.5359 27.1727 10.5637
1439 2 19.1456 26.2434 9.90995
1408 2 27.1939 27.1727 2.04269
1259 1 27.1939 27.1727 10.5637
1032 1 14.3166 23.4554 13.1861
1047 1 17.5359 23.4554 13.1861
1050 1 15.9263 26.2434 13.1861
1104 2 14.3166 21.5967 12.5324
1122 2 15.9263 24.3847 12.5324
1182 2 14.3166 23.4554 15.1548
1197 2 17.5359 23.4554 15.1548
1200 2 15.9263 26.2434 15.1548
1241 1 25.5842 24.3847 10.5637
1290 1 19.1456 26.2434 13.1861
1365 2 17.5359 27.1727 12.5324
1440 2 19.1456 26.2434 15.1548
1006 1 15.9263 15.0914 2.69647
1021 1 19.1456 15.0914 2.69647
1024 1 17.5359 17.8794 2.69647
1039 1 20.7553 17.8794 2.69647
1042 1 19.1456 20.6674 2.69647
1081 2 14.3166 16.0207 2.04269
1096 2 17.5359 16.0207 2.04269
1099 2 15.9263 18.8087 2.04269
1114 2 19.1456 18.8087 2.04269
1282 1 22.3649 20.6674 2.69647
931 1 14.3166 16.0207 5.31889
946 1 17.5359 16.0207 5.31889
949 1 15.9263 18.8087 5.31889
964 1 19.1456 18.8087 5.31889
1007 1 15.9263 15.0914 7.94131
1022 1 19.1456 15.0914 7.94131
1025 1 17.5359 17.8794 7.94131
1040 1 20.7553 17.8794 7.94131
1043 1 19.1456 20.6674 7.94131
1082 2 14.3166 16.0207 7.28753
1097 2 17.5359 16.0207 7.28753
1115 2 19.1456 18.8087 7.28753
1156 2 15.9263 15.0914 4.66511
1171 2 19.1456 15.0914 4.66511
1174 2 17.5359 17.8794 4.66511
1192 2 19.1456 20.6674 4.66511
1189 2 20.7553 17.8794 4.66511
1100 2 15.9263 18.8087 7.28753
1283 1 22.3649 20.6674 7.94131
1432 2 22.3649 20.6674 4.66511
932 1 14.3166 16.0207 10.5637
947 1 17.5359 16.0207 10.5637
950 1 15.9263 18.8087 10.5637
965 1 19.1456 18.8087 10.5637
1157 2 15.9263 15.0914 9.90995
1172 2 19.1456 15.0914 9.90995
1175 2 17.5359 17.8794 9.90995
1190 2 20.7553 17.8794 9.90995
1193 2 19.1456 20.6674 9.90995
1433 2 22.3649 20.6674 9.90995
1374 2 23.9746 21.5967 12.5324
1390 2 25.5842 24.3847 2.04269
1372 2 23.9746 21.5967 2.04269
1223 1 23.9746 21.5967 10.5637
1008 1 15.9263 15.0914 13.1861
1023 1 19.1456 15.0914 13.1861
1026 1 17.5359 17.8794 13.1861
1041 1 20.7553 17.8794 13.1861
1044 1 19.1456 20.6674 13.1861
1098 2 17.5359 16.0207 12.5324
1101 2 15.9263 18.8087 12.5324
1116 2 19.1456 18.8087 12.5324
1158 2 15.9263 15.0914 15.1548
1173 2 19.1456 15.0914 15.1548
1176 2 17.5359 17.8794 15.1548
1194 2 19.1456 20.6674 15.1548
1191 2 20.7553 17.8794 15.1548
1083 2 14.3166 16.0207 12.5324
1284 1 22.3649 20.6674 13.1861
1434 2 22.3649 20.6674 15.1548
1117 2 17.5359 21.5967 2.04269
1285 1 20.7553 23.4554 2.69647
1300 1 23.9746 23.4554 2.69647
1303 1 22.3649 26.2434 2.69647
1318 1 25.5842 26.2434 2.69647
1357 2 20.7553 21.5967 2.04269
1360 2 19.1456 24.3847 2.04269
1375 2 22.3649 24.3847 2.04269
1378 2 20.7553 27.1727 2.04269
1393 2 23.9746 27.1727 2.04269
967 1 17.5359 21.5967 5.31889
1118 2 17.5359 21.5967 7.28753
1207 1 20.7553 21.5967 5.31889
1210 1 19.1456 24.3847 5.31889
1225 1 22.3649 24.3847 5.31889
1228 1 20.7553 27.1727 5.31889
1243 1 23.9746 27.1727 5.31889
1286 1 20.7553 23.4554 7.94131
1301 1 23.9746 23.4554 7.94131
1304 1 22.3649 26.2434 7.94131
1319 1 25.5842 26.2434 7.94131
1358 2 20.7553 21.5967 7.28753
1361 2 19.1456 24.3847 7.28753
1376 2 22.3649 24.3847 7.28753
1394 2 23.9746 27.1727 7.28753
1435 2 20.7553 23.4554 4.66511
1450 2 23.9746 23.4554 4.66511
1453 2 22.3649 26.2434 4.66511
1468 2 25.5842 26.2434 4.66511
1379 2 20.7553 27.1727 7.28753
968 1 17.5359 21.5967 10.5637
1208 1 20.7553 21.5967 10.5637
1211 1 19.1456 24.3847 10.5637
1226 1 22.3649 24.3847 10.5637
1229 1 20.7553 27.1727 10.5637
1244 1 23.9746 27.1727 10.5637
1436 2 20.7553 23.4554 9.90995
1451 2 23.9746 23.4554 9.90995
1454 2 22.3649 26.2434 9.90995
1469 2 25.5842 26.2434 9.90995
1409 2 27.1939 27.1727 7.28753
1119 2 17.5359 21.5967 12.5324
1391 2 25.5842 24.3847 7.28753
1373 2 23.9746 21.5967 7.28753
1356 2 22.3649 18.8087 12.5324
1258 1 27.1939 27.1727 5.31889
1222 1 23.9746 21.5967 5.31889
1287 1 20.7553 23.4554 13.1861
1302 1 23.9746 23.4554 13.1861
1305 1 22.3649 26.2434 13.1861
1320 1 25.5842 26.2434 13.1861
1359 2 20.7553 21.5967 12.5324
1362 2 19.1456 24.3847 12.5324
1377 2 22.3649 24.3847 12.5324
1380 2 20.7553 27.1727 12.5324
1395 2 23.9746 27.1727 12.5324
1437 2 20.7553 23.4554 15.1548
1452 2 23.9746 23.4554 15.1548
1455 2 22.3649 26.2434 15.1548
1470 2 25.5842 26.2434 15.1548
1111 2 20.7553 16.0207 2.04269
1354 2 22.3649 18.8087 2.04269
961 1 20.7553 16.0207 5.31889
1112 2 20.7553 16.0207 7.28753
1204 1 22.3649 18.8087 5.31889
1355 2 22.3649 18.8087 7.28753
962 1 20.7553 16.0207 10.5637
1205 1 22.3649 18.8087 10.5637
1240 1 25.5842 24.3847 5.31889
1113 2 20.7553 16.0207 12.5324
3945 1 23.9746 27.1727 0.0740515
3636 1 12.707 18.8087 0.0740516
3906 1 22.3649 18.8087 0.0740515
3654 1 14.3166 21.5967 0.0740516
3942 1 25.5842 24.3847 0.0740515
3924 1 23.9746 21.5967 0.0740515
3909 1 20.7553 21.5967 0.0740515
3930 1 20.7553 27.1727 0.0740515
3663 1 20.7553 16.0207 0.0740516
3915 1 17.5359 27.1727 0.0740515
3927 1 22.3649 24.3847 0.0740515
3960 1 27.1939 27.1727 0.0740515
3912 1 19.1456 24.3847 0.0740515
3618 1 11.0973 16.0207 0.0740516
3633 1 14.3166 16.0207 0.0740516
3672 1 15.9263 24.3847 0.0740515
3648 1 17.5359 16.0207 0.0740516
3651 1 15.9263 18.8087 0.0740516
3669 1 17.5359 21.5967 0.0740515
3666 1 19.1456 18.8087 0.0740516
3676 1 9.48764 15.0914 18.431
3691 1 12.707 15.0914 18.431
3694 1 11.0973 17.8794 18.431
3709 1 14.3166 17.8794 18.431
3712 1 12.707 20.6674 18.431
3727 1 15.9263 20.6674 18.431
3766 2 11.0973 16.0207 17.7772
3784 2 12.707 18.8087 17.7772
3616 1 11.0973 16.0207 21.0534
3634 1 12.707 18.8087 21.0534
3677 1 9.48764 15.0914 23.6758
3692 1 12.707 15.0914 23.6758
3695 1 11.0973 17.8794 23.6758
3710 1 14.3166 17.8794 23.6758
3713 1 12.707 20.6674 23.6758
3728 1 15.9263 20.6674 23.6758
3767 2 11.0973 16.0207 23.022
3785 2 12.707 18.8087 23.022
3877 2 15.9263 20.6674 20.3996
3826 2 9.48764 15.0914 20.3996
3841 2 12.707 15.0914 20.3996
3844 2 11.0973 17.8794 20.3996
3859 2 14.3166 17.8794 20.3996
3862 2 12.707 20.6674 20.3996
3617 1 11.0973 16.0207 26.2982
3635 1 12.707 18.8087 26.2982
3827 2 9.48764 15.0914 25.6445
3842 2 12.707 15.0914 25.6445
3845 2 11.0973 17.8794 25.6445
3860 2 14.3166 17.8794 25.6445
3863 2 12.707 20.6674 25.6445
3878 2 15.9263 20.6674 25.6445
933 1 14.3166 16.0207 15.8086
3959 1 27.1939 27.1727 26.2982
3678 1 9.48764 15.0914 28.9207
3693 1 12.707 15.0914 28.9207
3696 1 11.0973 17.8794 28.9207
3711 1 14.3166 17.8794 28.9207
3714 1 12.707 20.6674 28.9207
3729 1 15.9263 20.6674 28.9207
3768 2 11.0973 16.0207 28.2669
3879 2 15.9263 20.6674 30.8893
3786 2 12.707 18.8087 28.2669
3828 2 9.48764 15.0914 30.8893
3843 2 12.707 15.0914 30.8893
3846 2 11.0973 17.8794 30.8893
3861 2 14.3166 17.8794 30.8893
3864 2 12.707 20.6674 30.8893
3730 1 14.3166 23.4554 18.431
3745 1 17.5359 23.4554 18.431
3748 1 15.9263 26.2434 18.431
3802 2 14.3166 21.5967 17.7772
3820 2 15.9263 24.3847 17.7772
3988 1 19.1456 26.2434 18.431
4063 2 17.5359 27.1727 17.7772
3652 1 14.3166 21.5967 21.0534
3670 1 15.9263 24.3847 21.0534
3731 1 14.3166 23.4554 23.6758
3746 1 17.5359 23.4554 23.6758
3749 1 15.9263 26.2434 23.6758
3898 2 15.9263 26.2434 20.3996
3803 2 14.3166 21.5967 23.022
3821 2 15.9263 24.3847 23.022
3880 2 14.3166 23.4554 20.3996
3895 2 17.5359 23.4554 20.3996
3913 1 17.5359 27.1727 21.0534
3989 1 19.1456 26.2434 23.6758
4064 2 17.5359 27.1727 23.022
4138 2 19.1456 26.2434 20.3996
3653 1 14.3166 21.5967 26.2982
3671 1 15.9263 24.3847 26.2982
3881 2 14.3166 23.4554 25.6445
3896 2 17.5359 23.4554 25.6445
3899 2 15.9263 26.2434 25.6445
3914 1 17.5359 27.1727 26.2982
4139 2 19.1456 26.2434 25.6445
948 1 17.5359 16.0207 15.8086
3941 1 25.5842 24.3847 26.2982
3732 1 14.3166 23.4554 28.9207
3747 1 17.5359 23.4554 28.9207
3750 1 15.9263 26.2434 28.9207
3804 2 14.3166 21.5967 28.2669
3822 2 15.9263 24.3847 28.2669
3882 2 14.3166 23.4554 30.8893
3897 2 17.5359 23.4554 30.8893
3900 2 15.9263 26.2434 30.8893
3923 1 23.9746 21.5967 26.2982
3990 1 19.1456 26.2434 28.9207
4065 2 17.5359 27.1727 28.2669
4140 2 19.1456 26.2434 30.8893
3706 1 15.9263 15.0914 18.431
3721 1 19.1456 15.0914 18.431
3724 1 17.5359 17.8794 18.431
3739 1 20.7553 17.8794 18.431
3742 1 19.1456 20.6674 18.431
3781 2 14.3166 16.0207 17.7772
3796 2 17.5359 16.0207 17.7772
3799 2 15.9263 18.8087 17.7772
3814 2 19.1456 18.8087 17.7772
3982 1 22.3649 20.6674 18.431
3631 1 14.3166 16.0207 21.0534
3646 1 17.5359 16.0207 21.0534
3649 1 15.9263 18.8087 21.0534
3664 1 19.1456 18.8087 21.0534
3707 1 15.9263 15.0914 23.6758
3722 1 19.1456 15.0914 23.6758
3725 1 17.5359 17.8794 23.6758
3740 1 20.7553 17.8794 23.6758
3743 1 19.1456 20.6674 23.6758
3782 2 14.3166 16.0207 23.022
3797 2 17.5359 16.0207 23.022
3815 2 19.1456 18.8087 23.022
3856 2 15.9263 15.0914 20.3996
3871 2 19.1456 15.0914 20.3996
3874 2 17.5359 17.8794 20.3996
3892 2 19.1456 20.6674 20.3996
3889 2 20.7553 17.8794 20.3996
3800 2 15.9263 18.8087 23.022
3983 1 22.3649 20.6674 23.6758
4132 2 22.3649 20.6674 20.3996
3632 1 14.3166 16.0207 26.2982
3647 1 17.5359 16.0207 26.2982
3650 1 15.9263 18.8087 26.2982
3665 1 19.1456 18.8087 26.2982
3857 2 15.9263 15.0914 25.6445
3872 2 19.1456 15.0914 25.6445
3875 2 17.5359 17.8794 25.6445
3890 2 20.7553 17.8794 25.6445
3893 2 19.1456 20.6674 25.6445
4133 2 22.3649 20.6674 25.6445
4110 2 27.1939 27.1727 28.2669
4092 2 25.5842 24.3847 28.2669
4109 2 27.1939 27.1727 23.022
4074 2 23.9746 21.5967 28.2669
3708 1 15.9263 15.0914 28.9207
3723 1 19.1456 15.0914 28.9207
3726 1 17.5359 17.8794 28.9207
3741 1 20.7553 17.8794 28.9207
3744 1 19.1456 20.6674 28.9207
3798 2 17.5359 16.0207 28.2669
3801 2 15.9263 18.8087 28.2669
3816 2 19.1456 18.8087 28.2669
3858 2 15.9263 15.0914 30.8893
3873 2 19.1456 15.0914 30.8893
3876 2 17.5359 17.8794 30.8893
3894 2 19.1456 20.6674 30.8893
3891 2 20.7553 17.8794 30.8893
3783 2 14.3166 16.0207 28.2669
3984 1 22.3649 20.6674 28.9207
4134 2 22.3649 20.6674 30.8893
3817 2 17.5359 21.5967 17.7772
3985 1 20.7553 23.4554 18.431
4000 1 23.9746 23.4554 18.431
4003 1 22.3649 26.2434 18.431
4018 1 25.5842 26.2434 18.431
4057 2 20.7553 21.5967 17.7772
4060 2 19.1456 24.3847 17.7772
4075 2 22.3649 24.3847 17.7772
4078 2 20.7553 27.1727 17.7772
4093 2 23.9746 27.1727 17.7772
3667 1 17.5359 21.5967 21.0534
3818 2 17.5359 21.5967 23.022
3907 1 20.7553 21.5967 21.0534
3910 1 19.1456 24.3847 21.0534
3925 1 22.3649 24.3847 21.0534
3928 1 20.7553 27.1727 21.0534
3943 1 23.9746 27.1727 21.0534
3986 1 20.7553 23.4554 23.6758
4001 1 23.9746 23.4554 23.6758
4004 1 22.3649 26.2434 23.6758
4019 1 25.5842 26.2434 23.6758
4058 2 20.7553 21.5967 23.022
4061 2 19.1456 24.3847 23.022
4076 2 22.3649 24.3847 23.022
4094 2 23.9746 27.1727 23.022
4135 2 20.7553 23.4554 20.3996
4150 2 23.9746 23.4554 20.3996
4153 2 22.3649 26.2434 20.3996
4168 2 25.5842 26.2434 20.3996
4079 2 20.7553 27.1727 23.022
3668 1 17.5359 21.5967 26.2982
3908 1 20.7553 21.5967 26.2982
3911 1 19.1456 24.3847 26.2982
3926 1 22.3649 24.3847 26.2982
3929 1 20.7553 27.1727 26.2982
3944 1 23.9746 27.1727 26.2982
4136 2 20.7553 23.4554 25.6445
4151 2 23.9746 23.4554 25.6445
4154 2 22.3649 26.2434 25.6445
4169 2 25.5842 26.2434 25.6445
936 1 12.707 18.8087 15.8086
3819 2 17.5359 21.5967 28.2669
4091 2 25.5842 24.3847 23.022
4073 2 23.9746 21.5967 23.022
3958 1 27.1939 27.1727 21.0534
3940 1 25.5842 24.3847 21.0534
951 1 15.9263 18.8087 15.8086
3987 1 20.7553 23.4554 28.9207
4002 1 23.9746 23.4554 28.9207
4005 1 22.3649 26.2434 28.9207
4020 1 25.5842 26.2434 28.9207
4059 2 20.7553 21.5967 28.2669
4062 2 19.1456 24.3847 28.2669
4077 2 22.3649 24.3847 28.2669
4080 2 20.7553 27.1727 28.2669
4095 2 23.9746 27.1727 28.2669
4137 2 20.7553 23.4554 30.8893
4152 2 23.9746 23.4554 30.8893
4155 2 22.3649 26.2434 30.8893
4170 2 25.5842 26.2434 30.8893
3811 2 20.7553 16.0207 17.7772
4054 2 22.3649 18.8087 17.7772
3661 1 20.7553 16.0207 21.0534
3812 2 20.7553 16.0207 23.022
3904 1 22.3649 18.8087 21.0534
4055 2 22.3649 18.8087 23.022
3662 1 20.7553 16.0207 26.2982
3905 1 22.3649 18.8087 26.2982
918 1 11.0973 16.0207 15.8086
3813 2 20.7553 16.0207 28.2669
3922 1 23.9746 21.5967 21.0534
4056 2 22.3649 18.8087 28.2669
4072 2 23.9746 21.5967 17.7772
4090 2 25.5842 24.3847 17.7772
4108 2 27.1939 27.1727 17.7772
972 1 15.9263 24.3847 15.8086
1212 1 19.1456 24.3847 15.8086
1230 1 20.7553 27.1727 15.8086
969 1 17.5359 21.5967 15.8086
1215 1 17.5359 27.1727 15.8086
1242 1 25.5842 24.3847 15.8086
1224 1 23.9746 21.5967 15.8086
963 1 20.7553 16.0207 15.8086
966 1 19.1456 18.8087 15.8086
954 1 14.3166 21.5967 15.8086
1227 1 22.3649 24.3847 15.8086
1260 1 27.1939 27.1727 15.8086
1209 1 20.7553 21.5967 15.8086
1245 1 23.9746 27.1727 15.8086
1206 1 22.3649 18.8087 15.8086
1876 1 17.5359 29.0314 2.69647
1891 1 20.7553 29.0314 2.69647
1894 1 19.1456 31.8194 2.69647
1909 1 22.3649 31.8194 2.69647
1912 1 20.7553 34.6074 2.69647
1927 1 23.9746 34.6074 2.69647
1966 2 19.1456 29.9608 2.04269
1984 2 20.7553 32.7488 2.04269
1816 1 19.1456 29.9608 5.31889
1834 1 20.7553 32.7488 5.31889