ITEM: TIMESTEP
10108
ITEM: NUMBER OF ATOMS
5400
ITEM: BOX BOUNDS xy xz yz pp pp pp
-1.2274701360000000e-06 7.2434683890000002e+01 2.4144874590000001e+01
-1.7284199339999999e-06 4.1820163800000003e+01 -1.2274701360000000e-06
0.0000000000000000e+00 3.1469031000000001e+01 -1.7284199339999999e-06
ITEM: ATOMS id type x y z
76 1 1.55976 0.900529 2.66571
91 1 4.77908 0.900529 2.66571
94 1 3.16942 3.68854 2.66571
109 1 6.38874 3.68854 2.66571
112 1 4.77908 6.47655 2.66571
127 1 7.9984 6.47655 2.66571
166 2 3.16942 1.82987 2.01193
184 2 4.77908 4.61788 2.01193
16 1 3.16942 1.82987 5.28813
34 1 4.77908 4.61788 5.28813
77 1 1.55976 0.900529 7.91055
92 1 4.77908 0.900528 7.91055
95 1 3.16942 3.68854 7.91055
110 1 6.38874 3.68854 7.91055
113 1 4.77908 6.47655 7.91055
128 1 7.9984 6.47655 7.91055
167 2 3.16942 1.82986 7.25677
185 2 4.77908 4.61788 7.25677
277 2 7.9984 6.47655 4.63435
226 2 1.55976 0.900529 4.63435
241 2 4.77908 0.900529 4.63435
244 2 3.16942 3.68854 4.63435
259 2 6.38874 3.68854 4.63435
262 2 4.77908 6.47655 4.63435
17 1 3.16942 1.82986 10.533
35 1 4.77908 4.61788 10.533
227 2 1.55976 0.900528 9.87919
242 2 4.77908 0.900528 9.87919
245 2 3.16942 3.68854 9.87919
260 2 6.38874 3.68854 9.87919
263 2 4.77908 6.47655 9.87919
278 2 7.9984 6.47655 9.87919
2751 1 7.9984 4.61788 0.0432915
2754 1 6.38874 7.40589 0.0432915
78 1 1.55976 0.900528 13.1554
93 1 4.77908 0.900528 13.1554
96 1 3.16942 3.68854 13.1554
111 1 6.38874 3.68854 13.1554
114 1 4.77908 6.47655 13.1554
129 1 7.9984 6.47655 13.1554
168 2 3.16942 1.82986 12.5016
279 2 7.9984 6.47655 15.124
186 2 4.77908 4.61788 12.5016
228 2 1.55976 0.900528 15.124
243 2 4.77908 0.900528 15.124
246 2 3.16942 3.68854 15.124
261 2 6.38874 3.68854 15.124
264 2 4.77908 6.47655 15.124
130 1 6.38874 9.26456 2.66571
145 1 9.60806 9.26456 2.66571
148 1 7.99839 12.0526 2.66571
202 2 6.38874 7.40589 2.01193
220 2 7.9984 10.1939 2.01193
388 1 11.2177 12.0526 2.66571
463 2 9.60805 12.9819 2.01193
52 1 6.38874 7.40589 5.28813
70 1 7.9984 10.1939 5.28813
131 1 6.38874 9.26456 7.91055
146 1 9.60806 9.26456 7.91055
149 1 7.99839 12.0526 7.91055
298 2 7.99839 12.0526 4.63435
203 2 6.38874 7.40589 7.25677
221 2 7.9984 10.1939 7.25677
280 2 6.38874 9.26456 4.63435
295 2 9.60806 9.26456 4.63435
313 1 9.60805 12.9819 5.28813
389 1 11.2177 12.0526 7.91055
464 2 9.60805 12.9819 7.25677
538 2 11.2177 12.0526 4.63435
53 1 6.38874 7.40589 10.533
71 1 7.9984 10.1939 10.533
281 2 6.38874 9.26456 9.87919
296 2 9.60806 9.26456 9.87919
299 2 7.99839 12.0526 9.87919
314 1 9.60805 12.9819 10.533
539 2 11.2177 12.0526 9.87919
510 2 19.266 12.9819 12.5016
492 2 17.6564 10.1939 12.5016
132 1 6.38874 9.26456 13.1554
147 1 9.60806 9.26456 13.1554
150 1 7.99839 12.0526 13.1554
204 2 6.38874 7.40589 12.5016
222 2 7.9984 10.1939 12.5016
282 2 6.38874 9.26456 15.124
297 2 9.60806 9.26456 15.124
300 2 7.99839 12.0526 15.124
2769 1 9.60806 7.40589 0.0432916
390 1 11.2177 12.0526 13.1554
465 2 9.60805 12.9819 12.5016
540 2 11.2177 12.0526 15.124
106 1 7.9984 0.900529 2.66571
121 1 11.2177 0.900529 2.66571
124 1 9.60806 3.68854 2.66571
139 1 12.8274 3.68854 2.66571
142 1 11.2177 6.47655 2.66571
181 2 6.38874 1.82987 2.01193
196 2 9.60806 1.82987 2.01193
199 2 7.9984 4.61788 2.01193
214 2 11.2177 4.61788 2.01193
382 1 14.437 6.47655 2.66571
31 1 6.38874 1.82987 5.28813
46 1 9.60806 1.82987 5.28813
49 1 7.9984 4.61788 5.28813
64 1 11.2177 4.61788 5.28813
107 1 7.9984 0.900528 7.91055
122 1 11.2177 0.900528 7.91055
125 1 9.60806 3.68854 7.91055
140 1 12.8274 3.68854 7.91055
143 1 11.2177 6.47655 7.91055
182 2 6.38874 1.82986 7.25677
197 2 9.60806 1.82986 7.25677
215 2 11.2177 4.61788 7.25677
256 2 7.9984 0.900529 4.63435
271 2 11.2177 0.900528 4.63435
274 2 9.60806 3.68854 4.63435
292 2 11.2177 6.47655 4.63435
289 2 12.8274 3.68854 4.63435
200 2 7.9984 4.61788 7.25677
383 1 14.437 6.47655 7.91055
532 2 14.437 6.47655 4.63435
32 1 6.38874 1.82986 10.533
47 1 9.60806 1.82986 10.533
50 1 7.9984 4.61788 10.533
65 1 11.2177 4.61788 10.533
257 2 7.9984 0.900528 9.87919
272 2 11.2177 0.900528 9.87919
275 2 9.60806 3.68854 9.87919
290 2 12.8274 3.68854 9.87919
293 2 11.2177 6.47655 9.87919
533 2 14.437 6.47655 9.87919
474 2 16.0467 7.40589 12.5016
2766 1 11.2177 4.61788 0.0432916
2772 1 7.9984 10.1939 0.0432916
2736 1 4.77908 4.61788 0.0432914
108 1 7.9984 0.900528 13.1554
123 1 11.2177 0.900528 13.1554
126 1 9.60806 3.68854 13.1554
141 1 12.8274 3.68854 13.1554
144 1 11.2177 6.47655 13.1554
198 2 9.60806 1.82986 12.5016
201 2 7.9984 4.61788 12.5016
216 2 11.2177 4.61788 12.5016
258 2 7.9984 0.900528 15.124
273 2 11.2177 0.900528 15.124
276 2 9.60806 3.68854 15.124
294 2 11.2177 6.47655 15.124
291 2 12.8274 3.68854 15.124
183 2 6.38874 1.82986 12.5016
384 1 14.437 6.47655 13.1554
534 2 14.437 6.47655 15.124
217 2 9.60806 7.40589 2.01193
385 1 12.8274 9.26456 2.66571
400 1 16.0467 9.26456 2.66571
403 1 14.437 12.0526 2.66571
418 1 17.6564 12.0526 2.66571
457 2 12.8274 7.40589 2.01193
460 2 11.2177 10.1939 2.01193
475 2 14.437 10.1939 2.01193
478 2 12.8274 12.9819 2.01193
493 2 16.0467 12.9819 2.01193
67 1 9.60806 7.40589 5.28813
218 2 9.60806 7.40589 7.25677
307 1 12.8274 7.40589 5.28813
310 1 11.2177 10.1939 5.28813
325 1 14.437 10.1939 5.28813
328 1 12.8274 12.9819 5.28813
343 1 16.0467 12.9819 5.28813
386 1 12.8274 9.26456 7.91055
401 1 16.0467 9.26456 7.91055
404 1 14.437 12.0526 7.91055
419 1 17.6564 12.0526 7.91055
458 2 12.8274 7.40589 7.25677
461 2 11.2177 10.1939 7.25677
476 2 14.437 10.1939 7.25677
494 2 16.0467 12.9819 7.25677
535 2 12.8274 9.26456 4.63435
550 2 16.0467 9.26456 4.63435
553 2 14.437 12.0526 4.63435
568 2 17.6564 12.0526 4.63435
479 2 12.8274 12.9819 7.25677
68 1 9.60806 7.40589 10.533
308 1 12.8274 7.40589 10.533
311 1 11.2177 10.1939 10.533
326 1 14.437 10.1939 10.533
329 1 12.8274 12.9819 10.533
344 1 16.0467 12.9819 10.533
536 2 12.8274 9.26456 9.87919
551 2 16.0467 9.26456 9.87919
554 2 14.437 12.0526 9.87919
569 2 17.6564 12.0526 9.87919
359 1 19.266 12.9819 10.533
219 2 9.60806 7.40589 12.5016
341 1 17.6564 10.1939 10.533
323 1 16.0467 7.40589 10.533
509 2 19.266 12.9819 7.25677
491 2 17.6564 10.1939 7.25677
473 2 16.0467 7.40589 7.25677
387 1 12.8274 9.26456 13.1554
402 1 16.0467 9.26456 13.1554
405 1 14.437 12.0526 13.1554
420 1 17.6564 12.0526 13.1554
459 2 12.8274 7.40589 12.5016
462 2 11.2177 10.1939 12.5016
477 2 14.437 10.1939 12.5016
480 2 12.8274 12.9819 12.5016
495 2 16.0467 12.9819 12.5016
537 2 12.8274 9.26456 15.124
552 2 16.0467 9.26456 15.124
555 2 14.437 12.0526 15.124
570 2 17.6564 12.0526 15.124
211 2 12.8274 1.82987 2.01193
454 2 14.437 4.61788 2.01193
61 1 12.8274 1.82986 5.28813
212 2 12.8274 1.82986 7.25677
304 1 14.437 4.61788 5.28813
455 2 14.437 4.61788 7.25677
62 1 12.8274 1.82986 10.533
305 1 14.437 4.61788 10.533
358 1 19.266 12.9819 5.28813
213 2 12.8274 1.82986 12.5016
340 1 17.6564 10.1939 5.28813
456 2 14.437 4.61788 12.5016
472 2 16.0467 7.40589 2.01193
490 2 17.6564 10.1939 2.01193
508 2 19.266 12.9819 2.01193
322 1 16.0467 7.40589 5.28813
3042 1 17.6564 10.1939 0.0432919
3024 1 16.0467 7.40589 0.0432918
3015 1 9.60805 12.9819 0.0432917
2748 1 9.60806 1.82987 0.0432916
3060 1 19.266 12.9819 0.043292
3009 1 12.8274 7.40589 0.0432917
3012 1 11.2177 10.1939 0.0432917
2718 1 3.16942 1.82987 0.0432915
3027 1 14.437 10.1939 0.0432919
2733 1 6.38874 1.82987 0.0432915
3030 1 12.8274 12.9819 0.0432918
3045 1 16.0467 12.9819 0.0432919
2763 1 12.8274 1.82987 0.0432917
3006 1 14.437 4.61788 0.0432917
2776 1 1.55976 0.900528 18.4002
2791 1 4.77908 0.900528 18.4002
2794 1 3.16942 3.68854 18.4002
2809 1 6.38874 3.68854 18.4002
2812 1 4.77908 6.47655 18.4002
2827 1 7.9984 6.47655 18.4002
2866 2 3.16942 1.82986 17.7464
2884 2 4.77908 4.61787 17.7464
2716 1 3.16942 1.82986 21.0226
2734 1 4.77908 4.61787 21.0226
2777 1 1.55976 0.900527 23.6451
2792 1 4.77908 0.900527 23.6451
2795 1 3.16942 3.68854 23.6451
2810 1 6.38874 3.68854 23.6451
2813 1 4.77908 6.47655 23.6451
2828 1 7.9984 6.47655 23.6451
2867 2 3.16942 1.82986 22.9913
2885 2 4.77908 4.61787 22.9913
2977 2 7.9984 6.47655 20.3689
2926 2 1.55976 0.900527 20.3689
2941 2 4.77908 0.900527 20.3689
2944 2 3.16942 3.68854 20.3689
2959 2 6.38874 3.68854 20.3689
2962 2 4.77908 6.47655 20.3689
2717 1 3.16942 1.82986 26.2675
2735 1 4.77908 4.61787 26.2675
2927 2 1.55976 0.900527 25.6137
2942 2 4.77908 0.900527 25.6137
2945 2 3.16942 3.68854 25.6137
2960 2 6.38874 3.68854 25.6137
2963 2 4.77908 6.47655 25.6137
2978 2 7.9984 6.47655 25.6137
3210 2 19.266 12.9819 28.2361
69 1 9.60806 7.40589 15.7778
2778 1 1.55976 0.900527 28.8899
2793 1 4.77908 0.900527 28.8899
2796 1 3.16942 3.68854 28.8899
2811 1 6.38874 3.68854 28.8899
2814 1 4.77908 6.47655 28.8899
2829 1 7.9984 6.47655 28.8899
2868 2 3.16942 1.82986 28.2361
2979 2 7.9984 6.47655 30.8585
2886 2 4.77908 4.61787 28.2361
2928 2 1.55976 0.900527 30.8585
2943 2 4.77908 0.900527 30.8585
2946 2 3.16942 3.68854 30.8585
2961 2 6.38874 3.68854 30.8585
2964 2 4.77908 6.47655 30.8585
2830 1 6.38874 9.26456 18.4002
2845 1 9.60806 9.26456 18.4002
2848 1 7.99839 12.0526 18.4002
2902 2 6.38874 7.40589 17.7464
2920 2 7.9984 10.1939 17.7464
3088 1 11.2177 12.0526 18.4002
3163 2 9.60805 12.9819 17.7464
2752 1 6.38874 7.40589 21.0226
2770 1 7.9984 10.1939 21.0226
2831 1 6.38874 9.26456 23.6451
2846 1 9.60806 9.26456 23.6451
2849 1 7.99839 12.0526 23.6451
2998 2 7.99839 12.0526 20.3689
2903 2 6.38874 7.40589 22.9913
2921 2 7.9984 10.1939 22.9913
2980 2 6.38874 9.26456 20.3689
2995 2 9.60806 9.26456 20.3689
3013 1 9.60805 12.9819 21.0226
3089 1 11.2177 12.0526 23.6451
3164 2 9.60805 12.9819 22.9913
3238 2 11.2177 12.0526 20.3689
2753 1 6.38874 7.40589 26.2675
2771 1 7.9984 10.1939 26.2675
2981 2 6.38874 9.26456 25.6137
2996 2 9.60806 9.26456 25.6137
2999 2 7.99839 12.0526 25.6137
3014 1 9.60805 12.9819 26.2675
3239 2 11.2177 12.0526 25.6137
3192 2 17.6564 10.1939 28.2361
66 1 11.2177 4.61788 15.7778
2832 1 6.38874 9.26456 28.8899
2847 1 9.60806 9.26456 28.8899
2850 1 7.99839 12.0526 28.8899
2904 2 6.38874 7.40589 28.2361
2922 2 7.9984 10.1939 28.2361
2982 2 6.38874 9.26456 30.8585
2997 2 9.60806 9.26456 30.8585
3000 2 7.99839 12.0526 30.8585
51 1 7.9984 4.61788 15.7778
3090 1 11.2177 12.0526 28.8899
3165 2 9.60805 12.9819 28.2361
3240 2 11.2177 12.0526 30.8585
2806 1 7.9984 0.900528 18.4002
2821 1 11.2177 0.900528 18.4002
2824 1 9.60806 3.68854 18.4002
2839 1 12.8274 3.68854 18.4002
2842 1 11.2177 6.47655 18.4002
2881 2 6.38874 1.82986 17.7464
2896 2 9.60806 1.82986 17.7464
2899 2 7.9984 4.61787 17.7464
2914 2 11.2177 4.61787 17.7464
3082 1 14.437 6.47655 18.4002
2731 1 6.38874 1.82986 21.0226
2746 1 9.60806 1.82986 21.0226
2749 1 7.9984 4.61787 21.0226
2764 1 11.2177 4.61787 21.0226
2807 1 7.9984 0.900527 23.6451
2822 1 11.2177 0.900527 23.6451
2825 1 9.60806 3.68854 23.6451
2840 1 12.8274 3.68854 23.6451
2843 1 11.2177 6.47655 23.6451
2882 2 6.38874 1.82986 22.9913
2897 2 9.60806 1.82986 22.9913
2915 2 11.2177 4.61787 22.9913
2956 2 7.9984 0.900527 20.3689
2971 2 11.2177 0.900527 20.3689
2974 2 9.60806 3.68854 20.3689
2992 2 11.2177 6.47655 20.3689
2989 2 12.8274 3.68854 20.3689
2900 2 7.9984 4.61787 22.9913
3083 1 14.437 6.47655 23.6451
3232 2 14.437 6.47655 20.3689
2732 1 6.38874 1.82986 26.2675
2747 1 9.60806 1.82986 26.2675
2750 1 7.9984 4.61787 26.2675
2765 1 11.2177 4.61787 26.2675
2957 2 7.9984 0.900527 25.6137
2972 2 11.2177 0.900527 25.6137
2975 2 9.60806 3.68854 25.6137
2990 2 12.8274 3.68854 25.6137
2993 2 11.2177 6.47655 25.6137
3233 2 14.437 6.47655 25.6137
3174 2 16.0467 7.40589 28.2361
48 1 9.60806 1.82986 15.7778
33 1 6.38874 1.82986 15.7778
3059 1 19.266 12.9819 26.2675
2808 1 7.9984 0.900527 28.8899
2823 1 11.2177 0.900527 28.8899
2826 1 9.60806 3.68854 28.8899
2841 1 12.8274 3.68854 28.8899
2844 1 11.2177 6.47655 28.8899
2898 2 9.60806 1.82986 28.2361
2901 2 7.9984 4.61787 28.2361
2916 2 11.2177 4.61787 28.2361
2958 2 7.9984 0.900527 30.8585
2973 2 11.2177 0.900527 30.8585
2976 2 9.60806 3.68854 30.8585
2994 2 11.2177 6.47655 30.8585
2991 2 12.8274 3.68854 30.8585
2883 2 6.38874 1.82986 28.2361
3084 1 14.437 6.47655 28.8899
3234 2 14.437 6.47655 30.8585
2917 2 9.60806 7.40589 17.7464
3085 1 12.8274 9.26456 18.4002
3100 1 16.0467 9.26456 18.4002
3103 1 14.437 12.0526 18.4002
3118 1 17.6564 12.0526 18.4002
3157 2 12.8274 7.40589 17.7464
3160 2 11.2177 10.1939 17.7464
3175 2 14.437 10.1939 17.7464
3178 2 12.8274 12.9819 17.7464
3193 2 16.0467 12.9819 17.7464
2767 1 9.60806 7.40589 21.0226
2918 2 9.60806 7.40589 22.9913
3007 1 12.8274 7.40589 21.0226
3010 1 11.2177 10.1939 21.0226
3025 1 14.437 10.1939 21.0226
3028 1 12.8274 12.9819 21.0226
3043 1 16.0467 12.9819 21.0226
3086 1 12.8274 9.26456 23.6451
3101 1 16.0467 9.26456 23.6451
3104 1 14.437 12.0526 23.6451
3119 1 17.6564 12.0526 23.6451
3158 2 12.8274 7.40589 22.9913
3161 2 11.2177 10.1939 22.9913
3176 2 14.437 10.1939 22.9913
3194 2 16.0467 12.9819 22.9913
3235 2 12.8274 9.26456 20.3689
3250 2 16.0467 9.26456 20.3689
3253 2 14.437 12.0526 20.3689
3268 2 17.6564 12.0526 20.3689
3179 2 12.8274 12.9819 22.9913
2768 1 9.60806 7.40589 26.2675
3008 1 12.8274 7.40589 26.2675
3011 1 11.2177 10.1939 26.2675
3026 1 14.437 10.1939 26.2675
3029 1 12.8274 12.9819 26.2675
3044 1 16.0467 12.9819 26.2675
3236 2 12.8274 9.26456 25.6137
3251 2 16.0467 9.26456 25.6137
3254 2 14.437 12.0526 25.6137
3269 2 17.6564 12.0526 25.6137
3041 1 17.6564 10.1939 26.2675
2919 2 9.60806 7.40589 28.2361
72 1 7.9984 10.1939 15.7778
54 1 6.38874 7.40589 15.7778
36 1 4.77908 4.61788 15.7778
18 1 3.16942 1.82986 15.7778
3023 1 16.0467 7.40589 26.2675
3087 1 12.8274 9.26456 28.8899
3102 1 16.0467 9.26456 28.8899
3105 1 14.437 12.0526 28.8899
3120 1 17.6564 12.0526 28.8899
3159 2 12.8274 7.40589 28.2361
3162 2 11.2177 10.1939 28.2361
3177 2 14.437 10.1939 28.2361
3180 2 12.8274 12.9819 28.2361
3195 2 16.0467 12.9819 28.2361
3237 2 12.8274 9.26456 30.8585
3252 2 16.0467 9.26456 30.8585
3255 2 14.437 12.0526 30.8585
3270 2 17.6564 12.0526 30.8585
2911 2 12.8274 1.82986 17.7464
3154 2 14.437 4.61787 17.7464
2761 1 12.8274 1.82986 21.0226
2912 2 12.8274 1.82986 22.9913
3004 1 14.437 4.61787 21.0226
3155 2 14.437 4.61787 22.9913
2762 1 12.8274 1.82986 26.2675
3005 1 14.437 4.61787 26.2675
3209 2 19.266 12.9819 22.9913
2913 2 12.8274 1.82986 28.2361
3191 2 17.6564 10.1939 22.9913
3156 2 14.437 4.61787 28.2361
3172 2 16.0467 7.40589 17.7464
3190 2 17.6564 10.1939 17.7464
3208 2 19.266 12.9819 17.7464
3022 1 16.0467 7.40589 21.0226
3040 1 17.6564 10.1939 21.0226
3058 1 19.266 12.9819 21.0226
3173 2 16.0467 7.40589 22.9913
315 1 9.60805 12.9819 15.7778
360 1 19.266 12.9819 15.7778
342 1 17.6564 10.1939 15.7778
324 1 16.0467 7.40589 15.7778
309 1 12.8274 7.40589 15.7778
312 1 11.2177 10.1939 15.7778
327 1 14.437 10.1939 15.7778
330 1 12.8274 12.9819 15.7778
345 1 16.0467 12.9819 15.7778
63 1 12.8274 1.82986 15.7778
306 1 14.437 4.61788 15.7778
976 1 9.60805 14.8406 2.66571
991 1 12.8274 14.8406 2.66571
994 1 11.2177 17.6286 2.66571
1009 1 14.437 17.6286 2.66571
1012 1 12.8274 20.4166 2.66571
1027 1 16.0467 20.4166 2.66571
1066 2 11.2177 15.7699 2.01193
1084 2 12.8274 18.5579 2.01193
916 1 11.2177 15.7699 5.28813
934 1 12.8274 18.5579 5.28813
977 1 9.60805 14.8406 7.91055
992 1 12.8274 14.8406 7.91055
995 1 11.2177 17.6286 7.91055
1010 1 14.437 17.6286 7.91055
1013 1 12.8274 20.4166 7.91055
1028 1 16.0467 20.4166 7.91055
1067 2 11.2177 15.7699 7.25677
1085 2 12.8274 18.5579 7.25677
1177 2 16.0467 20.4166 4.63435
1126 2 9.60805 14.8406 4.63435
1141 2 12.8274 14.8406 4.63435
1144 2 11.2177 17.6286 4.63435
1159 2 14.437 17.6286 4.63435
1162 2 12.8274 20.4166 4.63435
917 1 11.2177 15.7699 10.533
935 1 12.8274 18.5579 10.533
1127 2 9.60805 14.8406 9.87919
1142 2 12.8274 14.8406 9.87919
1145 2 11.2177 17.6286 9.87919
1160 2 14.437 17.6286 9.87919
1163 2 12.8274 20.4166 9.87919
1178 2 16.0467 20.4166 9.87919
1410 2 27.3143 26.922 12.5016
1392 2 25.7046 24.134 12.5016
978 1 9.60805 14.8406 13.1554
993 1 12.8274 14.8406 13.1554
996 1 11.2177 17.6286 13.1554
1011 1 14.437 17.6286 13.1554
1014 1 12.8274 20.4166 13.1554
1029 1 16.0467 20.4166 13.1554
1068 2 11.2177 15.7699 12.5016
1179 2 16.0467 20.4166 15.124
1086 2 12.8274 18.5579 12.5016
1128 2 9.60805 14.8406 15.124
1143 2 12.8274 14.8406 15.124
1146 2 11.2177 17.6286 15.124
1161 2 14.437 17.6286 15.124
1164 2 12.8274 20.4166 15.124
1030 1 14.437 23.2046 2.66571
1045 1 17.6563 23.2046 2.66571
1048 1 16.0467 25.9926 2.66571
1102 2 14.437 21.3459 2.01193
1120 2 16.0467 24.134 2.01193
1288 1 19.266 25.9926 2.66571
1363 2 17.6563 26.922 2.01193
952 1 14.437 21.3459 5.28813
970 1 16.0467 24.134 5.28813
1031 1 14.437 23.2046 7.91055
1046 1 17.6563 23.2046 7.91055
1049 1 16.0467 25.9926 7.91055
1198 2 16.0467 25.9926 4.63435
1103 2 14.437 21.3459 7.25677
1121 2 16.0467 24.134 7.25677
1180 2 14.437 23.2046 4.63435
1195 2 17.6563 23.2046 4.63435
1213 1 17.6563 26.922 5.28813
1289 1 19.266 25.9926 7.91055
1364 2 17.6563 26.922 7.25677
1438 2 19.266 25.9926 4.63435
953 1 14.437 21.3459 10.533
971 1 16.0467 24.134 10.533
1181 2 14.437 23.2046 9.87919
1196 2 17.6563 23.2046 9.87919
1199 2 16.0467 25.9926 9.87919
1214 1 17.6563 26.922 10.533
1439 2 19.266 25.9926 9.87919
1374 2 24.095 21.3459 12.5016
1259 1 27.3143 26.922 10.533
1032 1 14.437 23.2046 13.1554
1047 1 17.6563 23.2046 13.1554
1050 1 16.0467 25.9926 13.1554
1104 2 14.437 21.3459 12.5016
1122 2 16.0467 24.134 12.5016
1182 2 14.437 23.2046 15.124
1197 2 17.6563 23.2046 15.124
1200 2 16.0467 25.9926 15.124
1241 1 25.7046 24.134 10.533
1290 1 19.266 25.9926 13.1554
1365 2 17.6563 26.922 12.5016
1440 2 19.266 25.9926 15.124
1006 1 16.0467 14.8406 2.66571
1021 1 19.266 14.8406 2.66571
1024 1 17.6564 17.6286 2.66571
1039 1 20.8757 17.6286 2.66571
1042 1 19.266 20.4166 2.66571
1081 2 14.437 15.7699 2.01193
1096 2 17.6564 15.7699 2.01193
1099 2 16.0467 18.5579 2.01193
1114 2 19.266 18.5579 2.01193
1282 1 22.4853 20.4166 2.66571
931 1 14.437 15.7699 5.28813
946 1 17.6564 15.7699 5.28813
949 1 16.0467 18.5579 5.28813
964 1 19.266 18.5579 5.28813
1007 1 16.0467 14.8406 7.91055
1022 1 19.266 14.8406 7.91055
1025 1 17.6564 17.6286 7.91055
1040 1 20.8757 17.6286 7.91055
1043 1 19.266 20.4166 7.91055
1082 2 14.437 15.7699 7.25677
1097 2 17.6564 15.7699 7.25677
1115 2 19.266 18.5579 7.25677
1156 2 16.0467 14.8406 4.63435
1171 2 19.266 14.8406 4.63435
1174 2 17.6564 17.6286 4.63435
1192 2 19.266 20.4166 4.63435
1189 2 20.8757 17.6286 4.63435
1100 2 16.0467 18.5579 7.25677
1283 1 22.4853 20.4166 7.91055
1432 2 22.4853 20.4166 4.63435
932 1 14.437 15.7699 10.533
947 1 17.6564 15.7699 10.533
950 1 16.0467 18.5579 10.533
965 1 19.266 18.5579 10.533
1157 2 16.0467 14.8406 9.87919
1172 2 19.266 14.8406 9.87919
1175 2 17.6564 17.6286 9.87919
1190 2 20.8757 17.6286 9.87919
1193 2 19.266 20.4166 9.87919
1433 2 22.4853 20.4166 9.87919
1223 1 24.095 21.3459 10.533
1409 2 27.3143 26.922 7.25677
1391 2 25.7046 24.134 7.25677
1373 2 24.095 21.3459 7.25677
1008 1 16.0467 14.8406 13.1554
1023 1 19.266 14.8406 13.1554
1026 1 17.6564 17.6286 13.1554
1041 1 20.8757 17.6286 13.1554
1044 1 19.266 20.4166 13.1554
1098 2 17.6564 15.7699 12.5016
1101 2 16.0467 18.5579 12.5016
1116 2 19.266 18.5579 12.5016
1158 2 16.0467 14.8406 15.124
1173 2 19.266 14.8406 15.124
1176 2 17.6564 17.6286 15.124
1194 2 19.266 20.4166 15.124
1191 2 20.8757 17.6286 15.124
1083 2 14.437 15.7699 12.5016
1284 1 22.4853 20.4166 13.1554
1434 2 22.4853 20.4166 15.124
1117 2 17.6563 21.3459 2.01193
1285 1 20.8757 23.2046 2.66571
1300 1 24.095 23.2046 2.66571
1303 1 22.4853 25.9926 2.66571
1318 1 25.7046 25.9926 2.66571
1357 2 20.8757 21.3459 2.01193
1360 2 19.266 24.134 2.01193
1375 2 22.4853 24.134 2.01193
1378 2 20.8757 26.922 2.01193
1393 2 24.095 26.922 2.01193
967 1 17.6563 21.3459 5.28813
1118 2 17.6563 21.3459 7.25677
1207 1 20.8757 21.3459 5.28813
1210 1 19.266 24.134 5.28813
1225 1 22.4853 24.134 5.28813
1228 1 20.8757 26.922 5.28813
1243 1 24.095 26.922 5.28813
1286 1 20.8757 23.2046 7.91055
1301 1 24.095 23.2046 7.91055
1304 1 22.4853 25.9926 7.91055
1319 1 25.7046 25.9926 7.91055
1358 2 20.8757 21.3459 7.25677
1361 2 19.266 24.134 7.25677
1376 2 22.4853 24.134 7.25677
1394 2 24.095 26.922 7.25677
1435 2 20.8757 23.2046 4.63435
1450 2 24.095 23.2046 4.63435
1453 2 22.4853 25.9926 4.63435
1468 2 25.7046 25.9926 4.63435
1379 2 20.8757 26.922 7.25677
968 1 17.6563 21.3459 10.533
1208 1 20.8757 21.3459 10.533
1211 1 19.266 24.134 10.533
1226 1 22.4853 24.134 10.533
1229 1 20.8757 26.922 10.533
1244 1 24.095 26.922 10.533
1436 2 20.8757 23.2046 9.87919
1451 2 24.095 23.2046 9.87919
1454 2 22.4853 25.9926 9.87919
1469 2 25.7046 25.9926 9.87919
1258 1 27.3143 26.922 5.28813
1119 2 17.6563 21.3459 12.5016
1240 1 25.7046 24.134 5.28813
1222 1 24.095 21.3459 5.28813
1408 2 27.3143 26.922 2.01193
1390 2 25.7046 24.134 2.01193
1372 2 24.095 21.3459 2.01193
1287 1 20.8757 23.2046 13.1554
1302 1 24.095 23.2046 13.1554
1305 1 22.4853 25.9926 13.1554
1320 1 25.7046 25.9926 13.1554
1359 2 20.8757 21.3459 12.5016
1362 2 19.266 24.134 12.5016
1377 2 22.4853 24.134 12.5016
1380 2 20.8757 26.922 12.5016
1395 2 24.095 26.922 12.5016
1437 2 20.8757 23.2046 15.124
1452 2 24.095 23.2046 15.124
1455 2 22.4853 25.9926 15.124
1470 2 25.7046 25.9926 15.124
1111 2 20.8757 15.7699 2.01193
1354 2 22.4853 18.5579 2.01193
961 1 20.8757 15.7699 5.28813
1112 2 20.8757 15.7699 7.25677
1204 1 22.4853 18.5579 5.28813
1355 2 22.4853 18.5579 7.25677
962 1 20.8757 15.7699 10.533
1205 1 22.4853 18.5579 10.533
1356 2 22.4853 18.5579 12.5016
1113 2 20.8757 15.7699 12.5016
3618 1 11.2177 15.7699 0.0432918
3636 1 12.8274 18.5579 0.0432918
3654 1 14.437 21.3459 0.0432919
3672 1 16.0467 24.134 0.0432919
3960 1 27.3143 26.922 0.043292
3942 1 25.7046 24.134 0.0432919
3924 1 24.095 21.3459 0.0432919
3915 1 17.6563 26.922 0.0432919
3633 1 14.437 15.7699 0.0432919
3648 1 17.6564 15.7699 0.0432919
3651 1 16.0467 18.5579 0.0432919
3666 1 19.266 18.5579 0.0432919
3669 1 17.6564 21.3459 0.0432919
3909 1 20.8757 21.3459 0.0432919
3912 1 19.266 24.134 0.0432919
3927 1 22.4853 24.134 0.0432919
3930 1 20.8757 26.922 0.0432919
3945 1 24.095 26.922 0.0432919
3663 1 20.8757 15.7699 0.043292
3906 1 22.4853 18.5579 0.043292
3676 1 9.60805 14.8406 18.4002
3691 1 12.8274 14.8406 18.4002
3694 1 11.2177 17.6286 18.4002
3709 1 14.437 17.6286 18.4002
3712 1 12.8274 20.4166 18.4002
3727 1 16.0467 20.4166 18.4002
3766 2 11.2177 15.7699 17.7464
3784 2 12.8274 18.5579 17.7464
3616 1 11.2177 15.7699 21.0226
3634 1 12.8274 18.5579 21.0226
3677 1 9.60805 14.8406 23.6451
3692 1 12.8274 14.8406 23.6451
3695 1 11.2177 17.6286 23.6451
3710 1 14.437 17.6286 23.6451
3713 1 12.8274 20.4166 23.6451
3728 1 16.0467 20.4166 23.6451
3767 2 11.2177 15.7699 22.9913
3785 2 12.8274 18.5579 22.9913
3877 2 16.0467 20.4166 20.3689
3826 2 9.60805 14.8406 20.3689
3841 2 12.8274 14.8406 20.3689
3844 2 11.2177 17.6286 20.3689
3859 2 14.437 17.6286 20.3689
3862 2 12.8274 20.4166 20.3689
3617 1 11.2177 15.7699 26.2675
3635 1 12.8274 18.5579 26.2675
3827 2 9.60805 14.8406 25.6137
3842 2 12.8274 14.8406 25.6137
3845 2 11.2177 17.6286 25.6137
3860 2 14.437 17.6286 25.6137
3863 2 12.8274 20.4166 25.6137
3878 2 16.0467 20.4166 25.6137
4110 2 27.3143 26.922 28.2361
4092 2 25.7046 24.134 28.2361
3678 1 9.60805 14.8406 28.8899
3693 1 12.8274 14.8406 28.8899
3696 1 11.2177 17.6286 28.8899
3711 1 14.437 17.6286 28.8899
3714 1 12.8274 20.4166 28.8899
3729 1 16.0467 20.4166 28.8899
3768 2 11.2177 15.7699 28.2361
3879 2 16.0467 20.4166 30.8585
3786 2 12.8274 18.5579 28.2361
3828 2 9.60805 14.8406 30.8585
3843 2 12.8274 14.8406 30.8585
3846 2 11.2177 17.6286 30.8585
3861 2 14.437 17.6286 30.8585
3864 2 12.8274 20.4166 30.8585
3730 1 14.437 23.2046 18.4002
3745 1 17.6563 23.2046 18.4002
3748 1 16.0467 25.9926 18.4002
3802 2 14.437 21.3459 17.7464
3820 2 16.0467 24.134 17.7464
3988 1 19.266 25.9926 18.4002
4063 2 17.6563 26.922 17.7464
3652 1 14.437 21.3459 21.0226
3670 1 16.0467 24.134 21.0226
3731 1 14.437 23.2046 23.6451
3746 1 17.6563 23.2046 23.6451
3749 1 16.0467 25.9926 23.6451
3898 2 16.0467 25.9926 20.3689
3803 2 14.437 21.3459 22.9913
3821 2 16.0467 24.134 22.9913
3880 2 14.437 23.2046 20.3689
3895 2 17.6563 23.2046 20.3689
3913 1 17.6563 26.922 21.0226
3989 1 19.266 25.9926 23.6451
4064 2 17.6563 26.922 22.9913
4138 2 19.266 25.9926 20.3689
3653 1 14.437 21.3459 26.2675
3671 1 16.0467 24.134 26.2675
3881 2 14.437 23.2046 25.6137
3896 2 17.6563 23.2046 25.6137
3899 2 16.0467 25.9926 25.6137
3914 1 17.6563 26.922 26.2675
4139 2 19.266 25.9926 25.6137
4074 2 24.095 21.3459 28.2361
3959 1 27.3143 26.922 26.2675
3732 1 14.437 23.2046 28.8899
3747 1 17.6563 23.2046 28.8899
3750 1 16.0467 25.9926 28.8899
3804 2 14.437 21.3459 28.2361
3822 2 16.0467 24.134 28.2361
3882 2 14.437 23.2046 30.8585
3897 2 17.6563 23.2046 30.8585
3900 2 16.0467 25.9926 30.8585
3941 1 25.7046 24.134 26.2675
3990 1 19.266 25.9926 28.8899
4065 2 17.6563 26.922 28.2361
4140 2 19.266 25.9926 30.8585
3706 1 16.0467 14.8406 18.4002
3721 1 19.266 14.8406 18.4002
3724 1 17.6564 17.6286 18.4002
3739 1 20.8757 17.6286 18.4002
3742 1 19.266 20.4166 18.4002
3781 2 14.437 15.7699 17.7464
3796 2 17.6564 15.7699 17.7464
3799 2 16.0467 18.5579 17.7464
3814 2 19.266 18.5579 17.7464
3982 1 22.4853 20.4166 18.4002
3631 1 14.437 15.7699 21.0226
3646 1 17.6564 15.7699 21.0226
3649 1 16.0467 18.5579 21.0226
3664 1 19.266 18.5579 21.0226
3707 1 16.0467 14.8406 23.6451
3722 1 19.266 14.8406 23.6451
3725 1 17.6564 17.6286 23.6451
3740 1 20.8757 17.6286 23.6451
3743 1 19.266 20.4166 23.6451
3782 2 14.437 15.7699 22.9913
3797 2 17.6564 15.7699 22.9913
3815 2 19.266 18.5579 22.9913
3856 2 16.0467 14.8406 20.3689
3871 2 19.266 14.8406 20.3689
3874 2 17.6564 17.6286 20.3689
3892 2 19.266 20.4166 20.3689
3889 2 20.8757 17.6286 20.3689
3800 2 16.0467 18.5579 22.9913
3983 1 22.4853 20.4166 23.6451
4132 2 22.4853 20.4166 20.3689
3632 1 14.437 15.7699 26.2675
3647 1 17.6564 15.7699 26.2675
3650 1 16.0467 18.5579 26.2675
3665 1 19.266 18.5579 26.2675
3857 2 16.0467 14.8406 25.6137
3872 2 19.266 14.8406 25.6137
3875 2 17.6564 17.6286 25.6137
3890 2 20.8757 17.6286 25.6137
3893 2 19.266 20.4166 25.6137
4133 2 22.4853 20.4166 25.6137
3923 1 24.095 21.3459 26.2675
4109 2 27.3143 26.922 22.9913
4091 2 25.7046 24.134 22.9913
4073 2 24.095 21.3459 22.9913
3708 1 16.0467 14.8406 28.8899
3723 1 19.266 14.8406 28.8899
3726 1 17.6564 17.6286 28.8899
3741 1 20.8757 17.6286 28.8899
3744 1 19.266 20.4166 28.8899
3798 2 17.6564 15.7699 28.2361
3801 2 16.0467 18.5579 28.2361
3816 2 19.266 18.5579 28.2361
3858 2 16.0467 14.8406 30.8585
3873 2 19.266 14.8406 30.8585
3876 2 17.6564 17.6286 30.8585
3894 2 19.266 20.4166 30.8585
3891 2 20.8757 17.6286 30.8585
3783 2 14.437 15.7699 28.2361
3984 1 22.4853 20.4166 28.8899
4134 2 22.4853 20.4166 30.8585
3817 2 17.6563 21.3459 17.7464
3985 1 20.8757 23.2046 18.4002
4000 1 24.095 23.2046 18.4002
4003 1 22.4853 25.9926 18.4002
4018 1 25.7046 25.9926 18.4002
4057 2 20.8757 21.3459 17.7464
4060 2 19.266 24.134 17.7464
4075 2 22.4853 24.134 17.7464
4078 2 20.8757 26.922 17.7464
4093 2 24.095 26.922 17.7464
3667 1 17.6563 21.3459 21.0226
3818 2 17.6563 21.3459 22.9913
3907 1 20.8757 21.3459 21.0226
3910 1 19.266 24.134 21.0226
3925 1 22.4853 24.134 21.0226
3928 1 20.8757 26.922 21.0226
3943 1 24.095 26.922 21.0226
3986 1 20.8757 23.2046 23.6451
4001 1 24.095 23.2046 23.6451
4004 1 22.4853 25.9926 23.6451
4019 1 25.7046 25.9926 23.6451
4058 2 20.8757 21.3459 22.9913
4061 2 19.266 24.134 22.9913
4076 2 22.4853 24.134 22.9913
4094 2 24.095 26.922 22.9913
4135 2 20.8757 23.2046 20.3689
4150 2 24.095 23.2046 20.3689
4153 2 22.4853 25.9926 20.3689
4168 2 25.7046 25.9926 20.3689
4079 2 20.8757 26.922 22.9913
3668 1 17.6563 21.3459 26.2675
3908 1 20.8757 21.3459 26.2675
3911 1 19.266 24.134 26.2675
3926 1 22.4853 24.134 26.2675
3929 1 20.8757 26.922 26.2675
3944 1 24.095 26.922 26.2675
4136 2 20.8757 23.2046 25.6137
4151 2 24.095 23.2046 25.6137
4154 2 22.4853 25.9926 25.6137
4169 2 25.7046 25.9926 25.6137
3958 1 27.3143 26.922 21.0226
3819 2 17.6563 21.3459 28.2361
3940 1 25.7046 24.134 21.0226
3922 1 24.095 21.3459 21.0226
4108 2 27.3143 26.922 17.7464
4090 2 25.7046 24.134 17.7464
4072 2 24.095 21.3459 17.7464
3987 1 20.8757 23.2046 28.8899
4002 1 24.095 23.2046 28.8899
4005 1 22.4853 25.9926 28.8899
4020 1 25.7046 25.9926 28.8899
4059 2 20.8757 21.3459 28.2361
4062 2 19.266 24.134 28.2361
4077 2 22.4853 24.134 28.2361
4080 2 20.8757 26.922 28.2361
4095 2 24.095 26.922 28.2361
4137 2 20.8757 23.2046 30.8585
4152 2 24.095 23.2046 30.8585
4155 2 22.4853 25.9926 30.8585
4170 2 25.7046 25.9926 30.8585
3811 2 20.8757 15.7699 17.7464
4054 2 22.4853 18.5579 17.7464
3661 1 20.8757 15.7699 21.0226
3812 2 20.8757 15.7699 22.9913
3904 1 22.4853 18.5579 21.0226
4055 2 22.4853 18.5579 22.9913
3662 1 20.8757 15.7699 26.2675
3905 1 22.4853 18.5579 26.2675
4056 2 22.4853 18.5579 28.2361
3813 2 20.8757 15.7699 28.2361
918 1 11.2177 15.7699 15.7778
936 1 12.8274 18.5579 15.7778
954 1 14.437 21.3459 15.7778
972 1 16.0467 24.134 15.7778
1260 1 27.3143 26.922 15.7778
1242 1 25.7046 24.134 15.7778
1224 1 24.095 21.3459 15.7778
1215 1 17.6563 26.922 15.7778
933 1 14.437 15.7699 15.7778
948 1 17.6564 15.7699 15.7778
951 1 16.0467 18.5579 15.7778
966 1 19.266 18.5579 15.7778
969 1 17.6563 21.3459 15.7778
1209 1 20.8757 21.3459 15.7778
1212 1 19.266 24.134 15.7778
1227 1 22.4853 24.134 15.7778
1230 1 20.8757 26.922 15.7778
1245 1 24.095 26.922 15.7778
963 1 20.8757 15.7699 15.7778
1206 1 22.4853 18.5579 15.7778
1876 1 17.6563 28.7806 2.66571
1891 1 20.8757 28.7806 2.66571
1894 1 19.266 31.5686 2.66571
1909 1 22.4853 31.5686 2.66571
1912 1 20.8757 34.3567 2.66571
1927 1 24.095 34.3567 2.66571
1966 2 19.266 29.71 2.01193
1984 2 20.8757 32.498 2.01193
1816 1 19.266 29.71 5.28813
1834 1 20.8757 32.498 5.28813
1877 1 17.6563 28.7806 7.91055
1892 1 20.8757 28.7806 7.91055
1895 1 19.266 31.5686 7.91055
1910 1 22.4853 31.5686 7.91055
1913 1 20.8757 34.3567 7.91055
1928 1 24.095 34.3567 7.91055
1967 2 19.266 29.71 7.25677
1985 2 20.8757 32.498 7.25677