ITEM: TIMESTEP
10121
ITEM: NUMBER OF ATOMS
5400
ITEM: BOX BOUNDS xy xz yz pp pp pp
-1.2274701360000000e-06 7.2434683890000002e+01 2.4144874590000001e+01
-1.7284199339999999e-06 4.1820163800000003e+01 -1.2274701360000000e-06
0.0000000000000000e+00 3.1469031000000001e+01 -1.7284199339999999e-06
ITEM: ATOMS id type x y z
76 1 1.43294 1.15362 2.69701
91 1 4.65706 1.15769 2.69477
94 1 3.04471 3.94638 2.68496
109 1 6.2907 3.93603 2.67347
112 1 4.72793 6.72303 2.5804
127 1 7.9171 6.73222 2.67304
166 2 3.04339 2.08408 2.04018
184 2 4.67413 4.8486 2.00924
16 1 3.0329 2.07486 5.32591
510 2 19.149 13.2375 12.5333
77 1 1.4285 1.13253 7.94971
92 1 4.65553 1.15296 7.94487
95 1 3.02361 3.93041 7.97025
110 1 6.27685 3.93737 7.94287
113 1 4.81142 6.71083 7.9794
128 1 7.9593 6.71622 7.95305
167 2 3.03716 2.07456 7.29931
185 2 4.65118 4.86138 7.3201
277 2 7.94843 6.7313 4.64332
226 2 1.426 1.1449 4.6665
241 2 4.65372 1.1586 4.66536
244 2 2.98497 3.9257 4.65438
259 2 6.32641 3.92513 4.63996
262 2 4.85283 6.68337 4.52607
17 1 3.04025 2.07413 10.5748
35 1 4.65464 4.87359 10.5753
227 2 1.42731 1.14296 9.92017
242 2 4.65455 1.15354 9.91452
245 2 3.03247 3.93809 9.93978
260 2 6.26843 3.94443 9.91441
263 2 4.67346 6.74253 9.93698
278 2 7.90035 6.73223 9.92084
341 1 17.5429 10.4497 10.565
492 2 17.5405 10.4491 12.5335
78 1 1.43205 1.14629 13.1965
93 1 4.65632 1.15146 13.1908
96 1 3.0477 3.93446 13.2034
111 1 6.26822 3.94268 13.19
114 1 4.65868 6.73336 13.1897
129 1 7.88419 6.73138 13.1907
168 2 3.0424 2.07679 12.5435
279 2 7.88014 6.73065 15.1588
186 2 4.65491 4.87093 12.5433
228 2 1.43399 1.1497 15.1644
243 2 4.65629 1.15216 15.1594
246 2 3.04649 3.93862 15.1688
261 2 6.26755 3.94196 15.1585
264 2 4.65733 6.73099 15.159
130 1 6.30009 9.53151 2.6667
145 1 9.51179 9.52491 2.68487
148 1 7.89618 12.3198 2.68515
202 2 6.32769 7.67757 1.99032
220 2 7.90697 10.462 2.02567
388 1 11.112 12.3139 2.6907
463 2 9.50451 13.2468 2.03458
52 1 6.36662 7.67844 5.29596
70 1 7.92354 10.4689 5.30964
131 1 6.3536 9.54317 7.94468
146 1 9.5319 9.52435 7.94446
149 1 7.91467 12.3318 7.94342
298 2 7.90596 12.3265 4.65436
203 2 6.4022 7.66887 7.28141
221 2 7.94362 10.4744 7.28204
280 2 6.3231 9.54005 4.63803
295 2 9.52373 9.52803 4.6544
313 1 9.51245 13.2516 5.3153
389 1 11.1201 12.316 7.94274
464 2 9.51869 13.2548 7.28522
538 2 11.1174 12.3164 4.65967
53 1 6.28966 7.6712 10.5762
71 1 7.90653 10.4607 10.5716
281 2 6.30126 9.53354 9.91974
296 2 9.51113 9.52305 9.91403
299 2 7.89863 12.3207 9.91413
314 1 9.50566 13.2471 10.5677
539 2 11.1125 12.313 9.91185
474 2 15.9309 7.66019 12.5338
3006 1 14.3232 4.87128 0.0704067
132 1 6.28215 9.52243 13.1996
147 1 9.49812 9.52149 13.1912
150 1 7.88782 12.3129 13.1925
204 2 6.27475 7.66424 12.5433
222 2 7.89055 10.4539 12.5403
282 2 6.27271 9.52007 15.1652
297 2 9.49246 9.52006 15.1591
300 2 7.88234 12.3097 15.1603
323 1 15.9343 7.66051 10.5653
390 1 11.1056 12.3105 13.1891
465 2 9.49733 13.242 12.5364
540 2 11.1018 12.3088 15.1574
106 1 7.88406 1.15098 2.69354
121 1 11.1031 1.15161 2.69436
124 1 9.50433 3.93986 2.68888
139 1 12.7184 3.93986 2.69305
142 1 11.1206 6.73013 2.68839
181 2 6.27425 2.07602 2.03433
196 2 9.49455 2.08042 2.03824
199 2 7.89966 4.8708 2.02498
214 2 11.1124 4.87093 2.03533
382 1 14.3302 6.72971 2.69287
31 1 6.27538 2.07647 5.31617
46 1 9.49546 2.07947 5.31684
49 1 7.91572 4.87451 5.31242
64 1 11.1182 4.87142 5.31671
107 1 7.87948 1.15315 7.94147
122 1 11.1016 1.15129 7.94141
125 1 9.5033 3.936 7.94141
140 1 12.7186 3.93854 7.94175
143 1 11.1324 6.72668 7.94427
182 2 6.26834 2.08001 7.28675
197 2 9.49265 2.07881 7.2862
215 2 11.1132 4.86891 7.28639
256 2 7.88464 1.14849 4.66306
271 2 11.1039 1.15048 4.66336
274 2 9.51377 3.93731 4.6588
292 2 11.1313 6.72928 4.65734
289 2 12.7219 3.93864 4.66207
200 2 7.89812 4.86379 7.28482
383 1 14.3339 6.72852 7.94246
532 2 14.3344 6.7291 4.66161
32 1 6.26602 2.08409 10.5663
47 1 9.48871 2.08257 10.5645
50 1 7.8836 4.87087 10.5677
65 1 11.1044 4.87058 10.5654
257 2 7.87688 1.15503 9.9109
272 2 11.0987 1.15316 9.91033
275 2 9.49379 3.94128 9.91113
290 2 12.7133 3.94054 9.91068
293 2 11.1137 6.73 9.91321
533 2 14.3271 6.72951 9.91121
456 2 14.3195 4.87114 12.5334
509 2 19.1519 13.2387 7.28737
491 2 17.5457 10.4504 7.28704
473 2 15.9392 7.66106 7.28679
108 1 7.87655 1.15441 13.1872
123 1 11.0971 1.15382 13.1865
126 1 9.48968 3.94216 13.1876
141 1 12.7095 3.94147 13.1869
144 1 11.1041 6.73037 13.1889
198 2 9.48726 2.08333 12.5333
201 2 7.8796 4.87201 12.5363
216 2 11.1005 4.87151 12.5341
258 2 7.87657 1.15386 15.1559
273 2 11.0967 1.15372 15.1551
276 2 9.48832 3.94199 15.1561
294 2 11.1004 6.73044 15.1571
291 2 12.7081 3.94168 15.1554
183 2 6.2655 2.08344 12.5355
384 1 14.3218 6.7299 13.1877
534 2 14.3193 6.73007 15.156
217 2 9.51941 7.66618 2.02654
385 1 12.7232 9.52149 2.69119
400 1 15.9366 9.51973 2.69393
403 1 14.3272 12.3106 2.69346
418 1 17.5428 12.3087 2.69498
457 2 12.7253 7.66277 2.03568
460 2 11.1176 10.4556 2.03417
475 2 14.3299 10.4521 2.03823
478 2 12.7197 13.2427 2.03802
493 2 15.9351 13.24 2.04005
67 1 9.53741 7.67049 5.31389
218 2 9.54184 7.66655 7.2842
307 1 12.7321 7.66389 5.31667
310 1 11.126 10.4588 5.31538
325 1 14.3337 10.4532 5.31731
328 1 12.7238 13.2447 5.31715
343 1 15.9371 13.2408 5.31808
386 1 12.7304 9.52106 7.94258
401 1 15.9391 9.51945 7.94202
404 1 14.3305 12.3111 7.94203
419 1 17.5442 12.3088 7.94187
458 2 12.7326 7.66294 7.28583
461 2 11.1302 10.4587 7.28516
476 2 14.3345 10.4531 7.28634
494 2 15.9374 13.2408 7.2869
535 2 12.7288 9.52218 4.66014
550 2 15.9391 9.51983 4.66266
553 2 14.3299 12.3114 4.66223
568 2 17.5442 12.309 4.66364
479 2 12.7253 13.245 7.2863
68 1 9.50749 7.66374 10.5707
308 1 12.7202 7.66152 10.5667
311 1 11.116 10.4542 10.5676
326 1 14.3284 10.4513 10.5657
329 1 12.7195 13.2421 10.5659
344 1 15.9345 13.2395 10.5651
536 2 12.7221 9.52042 9.91161
551 2 15.9355 9.5192 9.91077
554 2 14.3269 12.3099 9.91084
569 2 17.5424 12.3083 9.91054
359 1 19.1504 13.2381 10.5648
219 2 9.49583 7.66207 12.5385
358 1 19.152 13.2387 5.31869
340 1 17.5457 10.4506 5.31828
322 1 15.9395 7.66141 5.31796
508 2 19.1511 13.2384 2.04131
472 2 15.9369 7.66111 2.03923
387 1 12.7149 9.51983 13.1887
402 1 15.9317 9.51897 13.1876
405 1 14.3229 12.3088 13.1879
420 1 17.5401 12.3077 13.1874
459 2 12.7138 7.66085 12.5351
462 2 11.1074 10.4516 12.536
477 2 14.3238 10.45 12.5342
480 2 12.7148 13.2399 12.5344
495 2 15.9318 13.2385 12.5336
537 2 12.7113 9.51932 15.1569
552 2 15.9295 9.51879 15.156
555 2 14.3205 12.308 15.1562
570 2 17.5386 12.3074 15.1558
211 2 12.7127 2.08121 2.03993
454 2 14.3262 4.87093 2.039
61 1 12.7133 2.08064 5.31799
212 2 12.7119 2.08046 7.28692
304 1 14.3285 4.87084 5.31787
455 2 14.3268 4.87023 7.28687
62 1 12.709 2.08197 10.5643
305 1 14.3223 4.87069 10.5649
490 2 17.544 10.4502 2.04034
213 2 12.7075 2.08273 12.5329
2763 1 12.711 2.08203 0.0712446
3027 1 14.3259 10.4509 0.0697028
3012 1 11.1104 10.4529 0.0657256
3015 1 9.49858 13.2429 0.0661719
3060 1 19.1498 13.2379 0.0727613
3045 1 15.9328 13.239 0.0715029
3030 1 12.716 13.2407 0.0694826
3009 1 12.7186 7.66179 0.0673198
3024 1 15.9337 7.66075 0.0707349
3042 1 17.5419 10.4496 0.0718033
2754 1 6.29037 7.66648 0.0329889
2736 1 4.66551 4.86482 0.0479717
2733 1 6.27189 2.08011 0.0662836
2748 1 9.49222 2.08157 0.0693926
2718 1 3.04694 2.08299 0.0712493
2766 1 11.1067 4.87145 0.066762
2751 1 7.88925 4.8711 0.0577449
2769 1 9.50448 7.6632 0.0588549
2772 1 7.89461 10.4559 0.0576115
2776 1 1.43607 1.15104 18.4366
2791 1 4.65718 1.15251 18.4338
2794 1 3.04695 3.94075 18.4351
2809 1 6.2677 3.94154 18.4324
2812 1 4.65779 6.73015 18.4336
2827 1 7.87869 6.73017 18.4316
2866 2 3.04597 2.08094 17.7836
2884 2 4.6571 4.87095 17.7814
2716 1 3.04703 2.082 21.0557
2734 1 4.65755 4.87078 21.054
2777 1 1.43715 1.15298 23.6778
2792 1 4.65751 1.15318 23.6759
2795 1 3.04759 3.94145 23.6759
2810 1 6.26826 3.94151 23.6735
2813 1 4.65837 6.73018 23.6734
2828 1 7.87932 6.73025 23.6715
2867 2 3.04707 2.08226 23.0238
2885 2 4.65765 4.87074 23.022
2977 2 7.87836 6.73011 20.3996
2926 2 1.43651 1.15226 20.4044
2941 2 4.65705 1.15289 20.4019
2944 2 3.04694 3.94108 20.403
2959 2 6.26753 3.94143 20.4005
2962 2 4.65761 6.72998 20.4015
2717 1 3.04762 2.0825 26.2975
2735 1 4.65881 4.87087 26.2938
2927 2 1.43706 1.15324 25.646
2942 2 4.65755 1.15303 25.644
2945 2 3.04761 3.94144 25.6439
2960 2 6.26894 3.94111 25.6413
2963 2 4.65887 6.7302 25.6411
2978 2 7.88105 6.73026 25.639
3210 2 19.1486 13.2374 28.2656
69 1 9.49056 7.66031 15.8106
2778 1 1.43696 1.15374 28.9211
2793 1 4.6582 1.15373 28.9185
2796 1 3.04777 3.94179 28.9155
2811 1 6.27258 3.94083 28.9098
2814 1 4.66218 6.73121 28.9087
2829 1 7.88683 6.73029 28.9039
2868 2 3.04726 2.08212 28.2657
2979 2 7.89802 6.72939 30.8688
2886 2 4.65968 4.87015 28.2615
2928 2 1.43575 1.15383 30.8898
2943 2 4.658 1.15364 30.8869
2946 2 3.04585 3.94112 30.8831
2961 2 6.27855 3.9377 30.876
2964 2 4.66808 6.73131 30.875
2830 1 6.26894 9.51904 18.4322
2845 1 9.48993 9.51904 18.4316
2848 1 7.87983 12.3083 18.4323
2902 2 6.26813 7.65944 17.7802
2920 2 7.87985 10.449 17.7808
3088 1 11.0998 12.3079 18.4313
3163 2 9.49 13.2377 17.7791
2752 1 6.26828 7.65963 21.0524
2770 1 7.87894 10.4485 21.0518
2831 1 6.26923 9.51924 23.6716
2846 1 9.48995 9.51924 23.6711
2849 1 7.87955 12.3082 23.6716
2998 2 7.87902 12.3079 20.4
2903 2 6.26859 7.65967 23.0202
2921 2 7.87945 10.4489 23.0195
2980 2 6.26842 9.51889 20.4001
2995 2 9.48917 9.51896 20.3994
3013 1 9.48925 13.2373 21.0521
3089 1 11.0996 12.308 23.6726
3164 2 9.48967 13.2377 23.02
3238 2 11.0992 12.3078 20.3993
2753 1 6.27056 7.66004 26.2897
2771 1 7.88201 10.45 26.2891
2981 2 6.27054 9.51997 25.639
2996 2 9.49204 9.51991 25.6385
2999 2 7.88102 12.3095 25.6392
3014 1 9.49127 13.2385 26.2928
3239 2 11.1011 12.3087 25.6405
33 1 6.26667 2.08255 15.8108
3059 1 19.1476 13.237 26.2972
2832 1 6.27603 9.52278 28.901
2847 1 9.49588 9.52106 28.9096
2850 1 7.88421 12.3113 28.9105
2904 2 6.27379 7.66041 28.2563
2922 2 7.88673 10.4525 28.2558
2982 2 6.28589 9.52828 30.8646
2997 2 9.50256 9.52295 30.8771
3000 2 7.88923 12.315 30.8781
3041 1 17.5386 10.4487 26.2963
3090 1 11.1035 12.3098 28.9144
3165 2 9.49408 13.2403 28.2607
3240 2 11.1073 12.3117 30.8825
2806 1 7.877 1.15344 18.4314
2821 1 11.0967 1.1535 18.4306
2824 1 9.48781 3.94167 18.4308
2839 1 12.7074 3.94158 18.4305
2842 1 11.0988 6.73015 18.4307
2881 2 6.26666 2.08253 17.7793
2896 2 9.48683 2.08283 17.7775
2899 2 7.87773 4.87108 17.7786
2914 2 11.0978 4.87118 17.7775
3082 1 14.3181 6.73 18.4307
2731 1 6.26737 2.08246 21.0536
2746 1 9.48726 2.08263 21.0524
2749 1 7.87797 4.87097 21.0522
2764 1 11.0979 4.87106 21.0516
2807 1 7.8778 1.15322 23.6744
2822 1 11.0976 1.15316 23.6741
2825 1 9.48875 3.94142 23.6725
2840 1 12.7083 3.9414 23.6733
2843 1 11.0995 6.73011 23.6719
2882 2 6.26751 2.08229 23.0218
2897 2 9.48773 2.08233 23.0206
2915 2 11.0987 4.87094 23.0197
2956 2 7.87712 1.15324 20.3998
2971 2 11.0969 1.15327 20.399
2974 2 9.4878 3.94152 20.3991
2992 2 11.0986 6.73009 20.3988
2989 2 12.7075 3.94147 20.3988
2900 2 7.87843 4.87079 23.0201
3083 1 14.3186 6.73 23.6733
3232 2 14.318 6.72998 20.3989
2732 1 6.26845 2.08207 26.2949
2747 1 9.48885 2.08222 26.2947
2750 1 7.88039 4.87066 26.2909
2765 1 11.1002 4.87108 26.2931
2957 2 7.87846 1.15277 25.6426
2972 2 11.0985 1.15273 25.6425
2975 2 9.49033 3.94088 25.6404
2990 2 12.7096 3.9411 25.6415
2993 2 11.1015 6.73005 25.6397
3233 2 14.32 6.72997 25.6415
3192 2 17.54 10.4491 28.2647
3023 1 15.9292 7.66002 26.2955
3174 2 15.9311 7.66026 28.2638
3209 2 19.147 13.2368 23.0216
2808 1 7.88001 1.1528 28.9168
2823 1 11.0998 1.15266 28.9179
2826 1 9.49337 3.94079 28.9131
2841 1 12.7117 3.94106 28.9164
2844 1 11.105 6.73038 28.9122
2898 2 9.49036 2.08143 28.2629
2901 2 7.88353 4.86962 28.2578
2916 2 11.1029 4.87085 28.261
2958 2 7.88203 1.15141 30.8851
2973 2 11.1013 1.15196 30.8864
2976 2 9.49798 3.93955 30.8809
2994 2 11.1112 6.73013 30.88
2991 2 12.7146 3.94042 30.8848
2883 2 6.26931 2.08083 28.2627
3084 1 14.3223 6.73006 28.9163
3234 2 14.3257 6.72991 30.8846
2917 2 9.48892 7.65995 17.7787
3085 1 12.7094 9.5189 18.4309
3100 1 15.9282 9.51862 18.431
3103 1 14.319 12.3075 18.4311
3118 1 17.5376 12.3071 18.4312
3157 2 12.7087 7.65993 17.7778
3160 2 11.0999 10.4489 17.7786
3175 2 14.319 10.4487 17.7778
3178 2 12.7096 13.2375 17.7781
3193 2 15.9285 13.2371 17.7778
2767 1 9.48874 7.65969 21.0515
2918 2 9.48947 7.65982 23.0193
3007 1 12.7085 7.65978 21.0517
3010 1 11.0992 10.4486 21.0517
3025 1 14.3185 10.4485 21.0522
3028 1 12.709 13.2372 21.0523
3043 1 15.928 13.2369 21.0528
3086 1 12.7095 9.51896 23.6726
3101 1 15.9283 9.51866 23.6739
3104 1 14.3189 12.3075 23.6737
3119 1 17.5376 12.3072 23.6747
3158 2 12.7092 7.6599 23.0197
3161 2 11.0999 10.4489 23.0195
3176 2 14.3191 10.4487 23.0203
3194 2 15.9284 13.2371 23.021
3235 2 12.7089 9.51884 20.399
3250 2 15.9279 9.5186 20.3992
3253 2 14.3186 12.3074 20.3993
3268 2 17.5374 12.3071 20.3995
3179 2 12.7094 13.2374 23.0204
2768 1 9.49191 7.66054 26.2899
3008 1 12.7109 7.66029 26.2933
3011 1 11.1018 10.4496 26.2923
3026 1 14.3204 10.4491 26.2948
3029 1 12.7107 13.238 26.2947
3044 1 15.9293 13.2375 26.2961
3236 2 12.7112 9.51932 25.6406
3251 2 15.9295 9.51886 25.6422
3254 2 14.32 12.308 25.6419
3269 2 17.5384 12.3074 25.643
3191 2 17.5377 10.4484 23.0211
2919 2 9.49651 7.66153 28.257
3173 2 15.928 7.65979 23.0206
3058 1 19.1467 13.2367 21.0533
3040 1 17.5373 10.4483 21.0528
3022 1 15.9275 7.65971 21.0524
3208 2 19.147 13.2368 17.7778
3087 1 12.7138 9.51987 28.9147
3102 1 15.9312 9.51912 28.9174
3105 1 14.3218 12.3086 28.917
3120 1 17.5396 12.3078 28.9186
3159 2 12.714 7.66079 28.2613
3162 2 11.1052 10.451 28.2601
3177 2 14.3227 10.4498 28.2629
3180 2 12.7128 13.2391 28.2628
3195 2 15.9308 13.2381 28.2644
3237 2 12.718 9.52072 30.8829
3252 2 15.9337 9.51947 30.8858
3255 2 14.3243 12.3096 30.8853
3270 2 17.5412 12.3082 30.8871
2911 2 12.7065 2.0828 17.7771
3154 2 14.3172 4.87115 17.7773
2761 1 12.7068 2.08269 21.0523
2912 2 12.7073 2.08249 23.0206
3004 1 14.3172 4.8711 21.0521
3155 2 14.3179 4.87105 23.0204
2762 1 12.7082 2.08246 26.2958
3005 1 14.319 4.87117 26.2952
3190 2 17.5376 10.4484 17.7777
2913 2 12.7095 2.08205 28.2642
3172 2 15.9277 7.65978 17.7776
3156 2 14.3209 4.87105 28.2635
36 1 4.65772 4.87147 15.8135
51 1 7.87845 4.87113 15.8104
72 1 7.883 10.4503 15.8134
54 1 6.26911 7.65919 15.8123
345 1 15.9295 13.2375 15.8095
315 1 9.49223 13.239 15.8111
48 1 9.48694 2.08297 15.809
360 1 19.1476 13.237 15.8094
312 1 11.1021 10.4497 15.8106
324 1 15.9286 7.65987 15.8093
342 1 17.5385 10.4486 15.8094
306 1 14.3178 4.87111 15.8089
63 1 12.7067 2.08283 15.8086
309 1 12.7101 7.66014 15.8096
66 1 11.0985 4.8712 15.8092
327 1 14.3205 10.4491 15.8096
18 1 3.0456 2.0787 15.8161
330 1 12.7112 13.2382 15.8099
976 1 9.49811 15.1045 2.6914
991 1 12.7158 15.1008 2.69357
994 1 11.1031 17.8895 2.6941
1009 1 14.3217 17.8873 2.69509
1012 1 12.7099 20.675 2.69547
1027 1 15.9289 20.6738 2.69598
1066 2 11.1071 16.0317 2.03859
1084 2 12.7125 18.8171 2.04062
916 1 11.1105 16.0343 5.3173
934 1 12.7139 18.8184 5.31828
977 1 9.50433 15.111 7.94241
992 1 12.7189 15.1025 7.94204
995 1 11.1053 17.8924 7.94197
1010 1 14.3229 17.8882 7.94187
1013 1 12.7107 20.6763 7.94191
1028 1 15.9294 20.6742 7.94194
1067 2 11.1124 16.0356 7.28638
1085 2 12.7145 18.8189 7.28705
1177 2 15.9294 20.6743 4.66459
1126 2 9.50201 15.1085 4.66029
1141 2 12.7181 15.1024 4.66234
1144 2 11.1047 17.8916 4.6628
1159 2 14.3227 17.8882 4.66375
1162 2 12.7105 20.676 4.66409
917 1 11.1076 16.0319 10.5658
935 1 12.7126 18.8171 10.565
1127 2 9.49909 15.1054 9.91169
1142 2 12.716 15.1005 9.91086
1145 2 11.1034 17.8899 9.9108
1160 2 14.3217 17.8871 9.91055
1163 2 12.7099 20.6751 9.91057
1178 2 15.9288 20.6736 9.91056
1410 2 27.1931 27.1759 12.5335
1392 2 25.5839 24.3884 12.5335
978 1 9.49403 15.1003 13.1892
993 1 12.7126 15.0984 13.1879
996 1 11.101 17.887 13.1879
1011 1 14.3199 17.8857 13.1874
1014 1 12.7087 20.6735 13.1874
1029 1 15.9279 20.6727 13.1873
1068 2 11.1037 16.0289 12.5344
1179 2 15.9273 20.6722 15.1558
1086 2 12.7107 18.8155 12.5336
1128 2 9.49099 15.0979 15.1574
1143 2 12.7103 15.097 15.1563
1146 2 11.0994 17.8854 15.1562
1161 2 14.3187 17.8847 15.1559
1164 2 12.7079 20.6726 15.1558
1030 1 14.3176 23.4611 2.69625
1045 1 17.5369 23.4605 2.69656
1048 1 15.926 26.2476 2.69675
1102 2 14.3194 21.6031 2.04177
1120 2 15.9272 24.3895 2.04248
1288 1 19.1454 26.2474 2.69695
1363 2 17.5356 27.1761 2.04294
952 1 14.32 21.6037 5.31888
970 1 15.9275 24.3896 5.31929
1031 1 14.3178 23.4615 7.94203
1046 1 17.537 23.4605 7.94211
1049 1 15.9259 26.2474 7.94225
1198 2 15.926 26.2476 4.66532
1103 2 14.3201 21.6038 7.28753
1121 2 15.9275 24.3895 7.2879
1180 2 14.3179 23.4615 4.66484
1195 2 17.5371 23.4607 4.66514
1213 1 17.5356 27.1759 5.31961
1289 1 19.1454 26.2471 7.94232
1364 2 17.5356 27.1757 7.28821
1438 2 19.1455 26.2473 4.66552
953 1 14.3193 21.6029 10.5648
971 1 15.927 24.3891 10.5648
1181 2 14.3175 23.461 9.91064
1196 2 17.5368 23.4602 9.9107
1199 2 15.9257 26.2472 9.91084
1214 1 17.5353 27.1755 10.5651
1439 2 19.1452 26.2469 9.91091
1391 2 25.5843 24.3886 7.28831
1373 2 23.9754 21.6013 7.28815
1032 1 14.3169 23.4602 13.1873
1047 1 17.5363 23.4597 13.1873
1050 1 15.9254 26.2468 13.1875
1104 2 14.3184 21.6021 12.5334
1122 2 15.9266 24.3887 12.5334
1182 2 14.3165 23.4597 15.1558
1197 2 17.536 23.4594 15.1558
1200 2 15.9253 26.2467 15.156
1258 1 27.1934 27.1762 5.31982
1290 1 19.145 26.2467 13.1875
1365 2 17.5351 27.1754 12.5336
1440 2 19.1449 26.2467 15.1561
1006 1 15.9328 15.0983 2.6949
1021 1 19.1499 15.0968 2.69578
1024 1 17.5397 17.8856 2.69581
1039 1 20.7577 17.8846 2.69634
1042 1 19.1476 20.6728 2.69641
1081 2 14.3244 16.0292 2.04017
1096 2 17.5414 16.0274 2.04127
1099 2 15.9308 18.8157 2.04144
1114 2 19.1488 18.8145 2.04208
1282 1 22.3661 20.6722 2.69675
931 1 14.3263 16.0303 5.31811
946 1 17.5424 16.0279 5.31864
949 1 15.9316 18.8162 5.31871
964 1 19.1492 18.8148 5.31905
1007 1 15.9342 15.0988 7.94185
1022 1 19.1505 15.097 7.94189
1025 1 17.5403 17.8859 7.94189
1040 1 20.7579 17.8847 7.942
1043 1 19.1478 20.6729 7.94202
1082 2 14.3268 16.0305 7.28694
1097 2 17.5425 16.0279 7.28733
1115 2 19.1492 18.8148 7.28768
1156 2 15.9341 15.099 4.66357
1171 2 19.1506 15.0971 4.66439
1174 2 17.5404 17.886 4.66442
1192 2 19.1479 20.673 4.665
1189 2 20.7581 17.8848 4.66493
1100 2 15.9318 18.8163 7.2874
1283 1 22.3662 20.6722 7.94213
1432 2 22.3663 20.6723 4.66532
932 1 14.3243 16.0289 10.5651
947 1 17.5411 16.0271 10.5648
950 1 15.9306 18.8154 10.5648
965 1 19.1485 18.8143 10.5647
1157 2 15.9327 15.098 9.91054
1172 2 19.1496 15.0966 9.91051
1175 2 17.5396 17.8854 9.91051
1190 2 20.7575 17.8844 9.91059
1193 2 19.1474 20.6726 9.91061
1433 2 22.3659 20.672 9.91071
1374 2 23.9749 21.6009 12.5334
1240 1 25.5843 24.3887 5.31972
1259 1 27.1933 27.176 10.5649
1241 1 25.5841 24.3885 10.5649
1008 1 15.9305 15.097 13.1874
1023 1 19.1483 15.0961 13.1872
1026 1 17.5385 17.8847 13.1872
1041 1 20.7568 17.884 13.1872
1044 1 19.1468 20.6721 13.1872
1098 2 17.5396 16.0263 12.5333
1101 2 15.9294 18.8145 12.5333
1116 2 19.1477 18.8138 12.5333
1158 2 15.9291 15.0963 15.1558
1173 2 19.1474 15.0957 15.1557
1176 2 17.5376 17.8841 15.1557
1194 2 19.1463 20.6718 15.1557
1191 2 20.7563 17.8837 15.1557
1083 2 14.3218 16.0274 12.5336
1284 1 22.3655 20.6717 13.1873
1434 2 22.3652 20.6715 15.1558
1117 2 17.5382 21.6023 2.04224
1285 1 20.756 23.46 2.69683
1300 1 23.9748 23.4597 2.69704
1303 1 22.3647 26.2472 2.69712
1318 1 25.5839 26.2472 2.69724
1357 2 20.7568 21.6017 2.04264
1360 2 19.1464 24.3892 2.04278
1375 2 22.3654 24.3889 2.04304
1378 2 20.755 27.1762 2.04316
1393 2 23.9743 27.1763 2.04333
967 1 17.5386 21.6025 5.31914
1118 2 17.5386 21.6025 7.28776
1207 1 20.7571 21.6018 5.31937
1210 1 19.1466 24.3891 5.31947
1225 1 22.3655 24.3889 5.31961
1228 1 20.755 27.1759 5.31972
1243 1 23.9743 27.1761 5.3198
1286 1 20.756 23.4599 7.94219
1301 1 23.9749 23.4596 7.94226
1304 1 22.3647 26.2469 7.94237
1319 1 25.5839 26.247 7.94237
1358 2 20.757 21.6017 7.28797
1361 2 19.1465 24.389 7.28807
1376 2 22.3654 24.3887 7.2882
1394 2 23.9742 27.1759 7.28839
1435 2 20.7561 23.46 4.6654
1450 2 23.9749 23.4597 4.66561
1453 2 22.3648 26.2472 4.6657
1468 2 25.5839 26.2471 4.66582
1379 2 20.755 27.1757 7.28832
968 1 17.5381 21.602 10.5647
1208 1 20.7566 21.6014 10.5648
1211 1 19.1462 24.3887 10.5649
1226 1 22.3652 24.3885 10.5649
1229 1 20.7548 27.1755 10.5651
1244 1 23.9741 27.1757 10.565
1436 2 20.7558 23.4597 9.91077
1451 2 23.9747 23.4594 9.91084
1454 2 22.3646 26.2468 9.91096
1469 2 25.5838 26.2469 9.91096
1223 1 23.9751 21.6011 10.5648
1119 2 17.5374 21.6015 12.5333
1222 1 23.9754 21.6013 5.31956
1408 2 27.1934 27.1764 2.04343
1390 2 25.5843 24.3888 2.04324
1372 2 23.9754 21.6013 2.04296
1356 2 22.366 18.8133 12.5333
1287 1 20.7555 23.4594 13.1873
1302 1 23.9745 23.4592 13.1873
1305 1 22.3644 26.2467 13.1875
1320 1 25.5836 26.2468 13.1874
1359 2 20.7562 21.6011 12.5333
1362 2 19.1459 24.3885 12.5334
1377 2 22.365 24.3884 12.5334
1380 2 20.7546 27.1755 12.5336
1395 2 23.974 27.1757 12.5336
1437 2 20.7552 23.4593 15.1559
1452 2 23.9743 23.4592 15.1559
1455 2 22.3643 26.2467 15.156
1470 2 25.5835 26.2467 15.156
1111 2 20.7586 16.0262 2.04204
1354 2 22.3668 18.8138 2.04257
961 1 20.7591 16.0264 5.31905
1112 2 20.759 16.0264 7.28767
1204 1 22.367 18.8139 5.31933
1355 2 22.3669 18.8139 7.28793
962 1 20.7582 16.026 10.5647
1205 1 22.3665 18.8136 10.5647
1409 2 27.1933 27.1761 7.28842
1113 2 20.7574 16.0256 12.5333
3618 1 11.1042 16.0293 0.0700854
3651 1 15.9297 18.8149 0.0728967
3636 1 12.711 18.8157 0.0720938
3654 1 14.3186 21.6024 0.0732357
3648 1 17.5402 16.0267 0.0727219
3633 1 14.3224 16.0279 0.0716245
3672 1 15.9269 24.3892 0.0739408
3915 1 17.5355 27.1762 0.0744049
3666 1 19.1481 18.8141 0.0735386
3669 1 17.5377 21.6019 0.0737002
3909 1 20.7565 21.6015 0.0740988
3912 1 19.1462 24.389 0.074237
3927 1 22.3652 24.3889 0.074493
3930 1 20.7549 27.1763 0.0746125
3945 1 23.9742 27.1764 0.0747757
3663 1 20.7579 16.0258 0.073493
3906 1 22.3664 18.8135 0.0740272
3960 1 27.1933 27.1764 0.074869
3942 1 25.5841 24.3887 0.0746843
3924 1 23.9751 21.6011 0.0744118
3676 1 9.48932 15.0967 18.4315
3691 1 12.709 15.0962 18.4313
3694 1 11.0984 17.8844 18.4314
3709 1 14.3179 17.8841 18.4314
3712 1 12.7073 20.6719 18.4315
3727 1 15.9268 20.6717 18.4316
3766 2 11.0993 16.0258 17.7782
3784 2 12.7082 18.8135 17.7779
3616 1 11.0987 16.0254 21.0526
3634 1 12.7078 18.8132 21.0532
3677 1 9.48908 15.0965 23.6733
3692 1 12.7088 15.0962 23.6739
3695 1 11.0982 17.8843 23.6745
3710 1 14.3178 17.8841 23.6749
3713 1 12.7073 20.6719 23.6753
3728 1 15.9267 20.6718 23.6756
3767 2 11.099 16.0257 23.0208
3785 2 12.708 18.8134 23.0215
3877 2 15.9267 20.6717 20.4
3826 2 9.48878 15.0963 20.3996
3841 2 12.7086 15.0961 20.3995
3844 2 11.0981 17.8842 20.3996
3859 2 14.3176 17.884 20.3997
3862 2 12.7072 20.6718 20.3999
3617 1 11.1 16.0263 26.2953
3635 1 12.7086 18.8138 26.2967
3827 2 9.49007 15.0975 25.6413
3842 2 12.7097 15.0968 25.6421
3845 2 11.0989 17.885 25.6427
3860 2 14.3183 17.8846 25.6433
3863 2 12.7076 20.6724 25.6437
3878 2 15.9271 20.6721 25.644
969 1 17.5367 21.601 15.8096
966 1 19.1469 18.8133 15.8095
3678 1 9.49194 15.0988 28.9154
3693 1 12.7112 15.0977 28.9172
3696 1 11.0999 17.886 28.918
3711 1 14.3192 17.8852 28.9189
3714 1 12.7083 20.673 28.9194
3729 1 15.9276 20.6726 28.9199
3768 2 11.1016 16.0276 28.2635
3879 2 15.9283 20.6732 30.8884
3786 2 12.7096 18.8147 28.2651
3828 2 9.49466 15.1012 30.8836
3843 2 12.7133 15.0992 30.8856
3846 2 11.1014 17.8875 30.8863
3861 2 14.3204 17.8862 30.8873
3864 2 12.709 20.6739 30.8878
3730 1 14.3163 23.4593 18.4318
3745 1 17.5357 23.4592 18.4319
3748 1 15.9252 26.2466 18.4321
3802 2 14.3171 21.6009 17.778
3820 2 15.926 24.3883 17.7782
3988 1 19.1448 26.2466 18.4322
4063 2 17.5349 27.1755 17.7785
3652 1 14.3169 21.6008 21.0536
3670 1 15.9259 24.3882 21.054
3731 1 14.3163 23.4594 23.6759
3746 1 17.5358 23.4593 23.6762
3749 1 15.9254 26.2468 23.6764
3898 2 15.9253 26.2467 20.4006
3803 2 14.317 21.6009 23.022
3821 2 15.926 24.3884 23.0225
3880 2 14.3162 23.4593 20.4002
3895 2 17.5357 23.4592 20.4003
3913 1 17.5349 27.1756 21.0545
3989 1 19.1449 26.2469 23.6766
4064 2 17.5351 27.1758 23.0229
4138 2 19.1448 26.2468 20.4007
3653 1 14.3173 21.6012 26.2977
3671 1 15.9262 24.3886 26.2983
3881 2 14.3165 23.4597 25.6443
3896 2 17.536 23.4596 25.6446
3899 2 15.9255 26.247 25.6449
3914 1 17.5352 27.176 26.2988
4139 2 19.145 26.2471 25.6451
972 1 15.9262 24.3884 15.8097
1206 1 22.3655 18.813 15.8096
3732 1 14.3169 23.4601 28.9203
3747 1 17.5363 23.4599 28.9206
3750 1 15.9257 26.2472 28.9208
3804 2 14.3179 21.6018 28.2661
3822 2 15.9265 24.3889 28.2668
3882 2 14.3173 23.4606 30.8887
3897 2 17.5366 23.4602 30.8891
3900 2 15.9259 26.2475 30.8893
1245 1 23.9738 27.1757 15.81
3990 1 19.1452 26.2472 28.9211
4065 2 17.5354 27.1762 28.2673
4140 2 19.1454 26.2474 30.8896
3706 1 15.9281 15.0958 18.4313
3721 1 19.1468 15.0954 18.4315
3724 1 17.537 17.8838 18.4315
3739 1 20.7559 17.8835 18.4317
3742 1 19.146 20.6715 18.4317
3781 2 14.3186 16.0255 17.7779
3796 2 17.5375 16.0252 17.7778
3799 2 15.9275 18.8133 17.7779
3814 2 19.1465 18.813 17.7779
3982 1 22.365 20.6713 18.4319
3631 1 14.3182 16.0253 21.0529
3646 1 17.5372 16.025 21.0533
3649 1 15.9272 18.8131 21.0534
3664 1 19.1463 18.8129 21.0537
3707 1 15.928 15.0958 23.6747
3722 1 19.1468 15.0954 23.6753
3725 1 17.537 17.8838 23.6754
3740 1 20.7559 17.8835 23.6759
3743 1 19.146 20.6716 23.676
3782 2 14.3185 16.0255 23.0212
3797 2 17.5374 16.0252 23.0216
3815 2 19.1465 18.813 23.0221
3856 2 15.9278 15.0957 20.3996
3871 2 19.1466 15.0954 20.3998
3874 2 17.5369 17.8837 20.3999
3892 2 19.1459 20.6715 20.4002
3889 2 20.7558 17.8834 20.4001
3800 2 15.9274 18.8132 23.0218
3983 1 22.365 20.6714 23.6763
4132 2 22.365 20.6713 20.4004
3632 1 14.3193 16.0259 26.2963
3647 1 17.538 16.0255 26.2971
3650 1 15.9279 18.8136 26.2973
3665 1 19.1468 18.8133 26.2979
3857 2 15.9287 15.0962 25.643
3872 2 19.1473 15.0957 25.6437
3875 2 17.5374 17.8841 25.6438
3890 2 20.7562 17.8837 25.6443
3893 2 19.1463 20.6718 25.6444
4133 2 22.3652 20.6715 25.6447
4110 2 27.1932 27.1763 28.2677
4092 2 25.584 24.3886 28.2675
4074 2 23.9749 21.601 28.2672
1230 1 20.7545 27.1755 15.81
3708 1 15.9298 15.0967 28.9186
3723 1 19.148 15.096 28.9196
3726 1 17.5381 17.8845 28.9197
3741 1 20.7566 17.884 28.9203
3744 1 19.1466 20.6721 28.9204
3798 2 17.539 16.026 28.2655
3801 2 15.9287 18.8142 28.2657
3816 2 19.1474 18.8137 28.2663
3858 2 15.9312 15.0975 30.887
3873 2 19.149 15.0964 30.8881
3876 2 17.5389 17.8851 30.8881
3894 2 19.1471 20.6725 30.8889
3891 2 20.7572 17.8843 30.8888
3783 2 14.3206 16.0268 28.2646
3984 1 22.3655 20.6717 28.9208
4134 2 22.3658 20.672 30.8893
3817 2 17.5364 21.6008 17.778
3985 1 20.755 23.4591 18.432
4000 1 23.9742 23.4591 18.4321
4003 1 22.3642 26.2467 18.4322
4018 1 25.5835 26.2467 18.4322
4057 2 20.7555 21.6007 17.7781
4060 2 19.1454 24.3883 17.7783
4075 2 22.3646 24.3883 17.7783
4078 2 20.7544 27.1757 17.7785
4093 2 23.9738 27.1758 17.7785
3667 1 17.5362 21.6007 21.0538
3818 2 17.5364 21.6009 23.0223
3907 1 20.7554 21.6006 21.054
3910 1 19.1453 24.3883 21.0542
3925 1 22.3646 24.3883 21.0543
3928 1 20.7544 27.1758 21.0546
3943 1 23.9738 27.1759 21.0546
3986 1 20.7551 23.4592 23.6764
4001 1 23.9742 23.4592 23.6766
4004 1 22.3643 26.2469 23.6767
4019 1 25.5835 26.2469 23.6768
4058 2 20.7555 21.6008 23.0225
4061 2 19.1454 24.3884 23.0227
4076 2 22.3646 24.3884 23.0228
4094 2 23.9738 27.1761 23.0231
4135 2 20.755 23.4592 20.4005
4150 2 23.9742 23.4591 20.4006
4153 2 22.3642 26.2468 20.4007
4168 2 25.5835 26.2468 20.4007
4079 2 20.7545 27.176 23.023
3668 1 17.5367 21.6011 26.2981
3908 1 20.7557 21.6009 26.2984
3911 1 19.1456 24.3886 26.2986
3926 1 22.3648 24.3886 26.2988
3929 1 20.7546 27.1761 26.299
3944 1 23.9739 27.1762 26.2991
4136 2 20.7553 23.4594 25.6449
4151 2 23.9744 23.4593 25.6451
4154 2 22.3644 26.2471 25.6452
4169 2 25.5836 26.247 25.6453
1227 1 22.3647 24.3883 15.8098
3819 2 17.5371 21.6015 28.2665
1212 1 19.1455 24.3883 15.8098
1209 1 20.7557 21.6008 15.8096
1224 1 23.9746 21.6007 15.8097
1215 1 17.535 27.1754 15.81
1242 1 25.5838 24.3883 15.8098
3987 1 20.7555 23.4596 28.9209
4002 1 23.9745 23.4594 28.9212
4005 1 22.3645 26.2472 28.9213
4020 1 25.5837 26.2471 28.9214
4059 2 20.7561 21.6012 28.2669
4062 2 19.1459 24.3888 28.2671
4077 2 22.365 24.3887 28.2673
4080 2 20.7548 27.1763 28.2675
4095 2 23.9741 27.1763 28.2676
4137 2 20.7558 23.4599 30.8894
4152 2 23.9747 23.4596 30.8897
4155 2 22.3647 26.2473 30.8898
4170 2 25.5838 26.2472 30.89
3811 2 20.7561 16.0249 17.7779
4054 2 22.3653 18.8128 17.7781
3661 1 20.756 16.0248 21.0537
3812 2 20.7562 16.0249 23.0221
3904 1 22.3652 18.8127 21.054
4055 2 22.3653 18.8128 23.0224
3662 1 20.7566 16.0251 26.2978
3905 1 22.3656 18.813 26.2983
1260 1 27.1931 27.1759 15.8098
3813 2 20.7572 16.0254 28.2663
3959 1 27.1931 27.1762 26.2992
4056 2 22.3659 18.8132 28.2668
4072 2 23.9745 21.6006 17.7782
4090 2 25.5837 24.3883 17.7783
4108 2 27.193 27.1759 17.7784
3922 1 23.9744 21.6006 21.0542
3940 1 25.5837 24.3883 21.0544
3958 1 27.193 27.176 21.0546
4073 2 23.9745 21.6006 23.0227
4091 2 25.5838 24.3884 23.0229
4109 2 27.1931 27.1761 23.0231
3923 1 23.9747 21.6008 26.2987
3941 1 25.5839 24.3885 26.299
963 1 20.7565 16.0251 15.8095
951 1 15.9281 18.8137 15.8095
948 1 17.5382 16.0255 15.8094
918 1 11.1007 16.0267 15.81
936 1 12.709 18.8141 15.8096
933 1 14.3197 16.0261 15.8095
954 1 14.3175 21.6013 15.8096
1876 1 17.5346 29.0343 2.69707
1891 1 20.7543 29.0344 2.69722
1894 1 19.1433 31.8211 2.69727
1909 1 22.3633 31.8217 2.69741
1912 1 20.7521 34.6081 2.69734
1927 1 23.9724 34.6093 2.69752
1966 2 19.1443 29.963 2.04325
1984 2 20.7531 32.75 2.04346
1816 1 19.1441 29.9623 5.31986
1834 1 20.7527 32.7487 5.32007
1877 1 17.5342 29.0336 7.94253
1892 1 20.7541 29.0337 7.94256
1895 1 19.1426 31.8197 7.94287
1910 1 22.363 31.8204 7.94284
1913 1 20.7508 34.6054 7.94335
1928 1 23.972 34.607 7.94318