ITEM: TIMESTEP
10117
ITEM: NUMBER OF ATOMS
5400
ITEM: BOX BOUNDS xy xz yz pp pp pp
-1.2274701360000000e-06 7.2434683890000002e+01 2.4144874590000001e+01
-1.7284199339999999e-06 4.1820163800000003e+01 -1.2274701360000000e-06
0.0000000000000000e+00 3.1469031000000001e+01 -1.7284199339999999e-06
ITEM: ATOMS id type x y z
76 1 1.44469 1.14433 2.69412
91 1 4.66401 1.14433 2.69411
94 1 3.05435 3.93234 2.69411
109 1 6.27367 3.93234 2.69411
112 1 4.66401 6.72035 2.69412
127 1 7.88333 6.72035 2.69412
166 2 3.05435 2.07367 2.04034
184 2 4.66401 4.86168 2.04034
16 1 3.05435 2.07367 5.31653
510 2 19.1509 13.2257 12.53
77 1 1.44469 1.14433 7.93895
92 1 4.66401 1.14433 7.93895
95 1 3.05435 3.93234 7.93895
110 1 6.27367 3.93234 7.93895
113 1 4.66401 6.72035 7.93895
128 1 7.88333 6.72035 7.93895
167 2 3.05435 2.07367 7.28517
185 2 4.66401 4.86168 7.28517
277 2 7.88333 6.72035 4.66276
226 2 1.44469 1.14433 4.66276
241 2 4.66401 1.14433 4.66276
244 2 3.05435 3.93234 4.66276
259 2 6.27367 3.93234 4.66276
262 2 4.66401 6.72035 4.66276
17 1 3.05435 2.07367 10.5614
35 1 4.66401 4.86168 10.5614
227 2 1.44469 1.14433 9.90759
242 2 4.66401 1.14433 9.90759
245 2 3.05435 3.93234 9.90759
260 2 6.27367 3.93234 9.90759
263 2 4.66401 6.72035 9.90759
278 2 7.88333 6.72035 9.90759
492 2 17.5413 10.4377 12.53
474 2 15.9316 7.64969 12.53
78 1 1.44469 1.14433 13.1838
93 1 4.66401 1.14433 13.1838
96 1 3.05435 3.93234 13.1838
111 1 6.27367 3.93234 13.1838
114 1 4.66401 6.72035 13.1838
129 1 7.88333 6.72035 13.1838
168 2 3.05435 2.07367 12.53
279 2 7.88333 6.72035 15.1524
186 2 4.66401 4.86168 12.53
228 2 1.44469 1.14433 15.1524
243 2 4.66401 1.14433 15.1524
246 2 3.05435 3.93234 15.1524
261 2 6.27367 3.93234 15.1524
264 2 4.66401 6.72035 15.1524
130 1 6.27367 9.50837 2.69412
145 1 9.49299 9.50837 2.69412
148 1 7.88333 12.2964 2.69412
202 2 6.27367 7.64969 2.04034
220 2 7.88333 10.4377 2.04034
388 1 11.1026 12.2964 2.69412
463 2 9.49299 13.2257 2.04034
52 1 6.27367 7.64969 5.31653
70 1 7.88333 10.4377 5.31653
131 1 6.27367 9.50837 7.93895
146 1 9.49299 9.50837 7.93895
149 1 7.88333 12.2964 7.93895
298 2 7.88333 12.2964 4.66276
203 2 6.27367 7.64969 7.28517
221 2 7.88333 10.4377 7.28517
280 2 6.27367 9.50837 4.66276
295 2 9.49299 9.50837 4.66276
313 1 9.49299 13.2257 5.31653
389 1 11.1026 12.2964 7.93895
464 2 9.49299 13.2257 7.28517
538 2 11.1026 12.2964 4.66276
53 1 6.27367 7.64969 10.5614
71 1 7.88333 10.4377 10.5614
281 2 6.27367 9.50837 9.90759
296 2 9.49299 9.50837 9.90759
299 2 7.88333 12.2964 9.90759
314 1 9.49299 13.2257 10.5614
539 2 11.1026 12.2964 9.90759
3042 1 17.5413 10.4377 0.0716959
37 1 4.66401 4.86168 5.31653
132 1 6.27367 9.50837 13.1838
147 1 9.49299 9.50837 13.1838
150 1 7.88333 12.2964 13.1838
204 2 6.27367 7.64969 12.53
222 2 7.88333 10.4377 12.53
282 2 6.27367 9.50837 15.1524
297 2 9.49299 9.50837 15.1524
300 2 7.88333 12.2964 15.1524
340 1 17.5413 10.4377 5.31653
390 1 11.1026 12.2964 13.1838
465 2 9.49299 13.2257 12.53
540 2 11.1026 12.2964 15.1524
106 1 7.88334 1.14433 2.69411
121 1 11.1027 1.14433 2.69412
124 1 9.49299 3.93234 2.69412
139 1 12.7123 3.93234 2.69412
142 1 11.1027 6.72035 2.69412
181 2 6.27367 2.07367 2.04034
196 2 9.493 2.07367 2.04034
199 2 7.88333 4.86168 2.04034
214 2 11.1027 4.86168 2.04034
382 1 14.322 6.72036 2.69412
31 1 6.27367 2.07367 5.31653
46 1 9.493 2.07367 5.31653
49 1 7.88333 4.86168 5.31653
64 1 11.1027 4.86168 5.31653
107 1 7.88333 1.14433 7.93895
122 1 11.1027 1.14433 7.93895
125 1 9.49299 3.93234 7.93895
140 1 12.7123 3.93234 7.93895
143 1 11.1027 6.72035 7.93895
182 2 6.27367 2.07367 7.28517
197 2 9.49299 2.07367 7.28517
215 2 11.1027 4.86168 7.28517
256 2 7.88333 1.14433 4.66276
271 2 11.1027 1.14433 4.66276
274 2 9.49299 3.93234 4.66276
292 2 11.1027 6.72035 4.66276
289 2 12.7123 3.93234 4.66276
200 2 7.88333 4.86168 7.28517
383 1 14.322 6.72035 7.93895
532 2 14.322 6.72035 4.66276
32 1 6.27367 2.07367 10.5614
47 1 9.49299 2.07367 10.5614
50 1 7.88333 4.86168 10.5614
65 1 11.1027 4.86168 10.5614
257 2 7.88333 1.14433 9.90759
272 2 11.1027 1.14433 9.90759
275 2 9.49299 3.93234 9.90759
290 2 12.7123 3.93234 9.90759
293 2 11.1027 6.72035 9.90759
533 2 14.322 6.72035 9.90759
359 1 19.1509 13.2257 10.5614
341 1 17.5413 10.4377 10.5614
323 1 15.9316 7.64969 10.5614
509 2 19.1509 13.2257 7.28517
108 1 7.88333 1.14433 13.1838
123 1 11.1027 1.14433 13.1838
126 1 9.49299 3.93234 13.1838
141 1 12.7123 3.93234 13.1838
144 1 11.1027 6.72035 13.1838
198 2 9.49299 2.07367 12.53
201 2 7.88333 4.86168 12.53
216 2 11.1027 4.86168 12.53
258 2 7.88333 1.14433 15.1524
273 2 11.1027 1.14433 15.1524
276 2 9.49299 3.93234 15.1524
294 2 11.1027 6.72035 15.1524
291 2 12.7123 3.93234 15.1524
183 2 6.27367 2.07367 12.53
384 1 14.322 6.72035 13.1838
534 2 14.322 6.72035 15.1524
217 2 9.49299 7.64969 2.04034
385 1 12.7123 9.50837 2.69412
400 1 15.9316 9.50837 2.69412
403 1 14.322 12.2964 2.69412
418 1 17.5413 12.2964 2.69412
457 2 12.7123 7.64969 2.04034
460 2 11.1026 10.4377 2.04034
475 2 14.322 10.4377 2.04034
478 2 12.7123 13.2257 2.04034
493 2 15.9316 13.2257 2.04034
67 1 9.49299 7.64969 5.31653
218 2 9.49299 7.64969 7.28517
307 1 12.7123 7.64969 5.31653
310 1 11.1026 10.4377 5.31653
325 1 14.322 10.4377 5.31653
328 1 12.7123 13.2257 5.31653
343 1 15.9316 13.2257 5.31653
386 1 12.7123 9.50837 7.93895
401 1 15.9316 9.50837 7.93895
404 1 14.322 12.2964 7.93895
419 1 17.5413 12.2964 7.93895
458 2 12.7123 7.64969 7.28517
461 2 11.1026 10.4377 7.28517
476 2 14.322 10.4377 7.28517
494 2 15.9316 13.2257 7.28517
535 2 12.7123 9.50837 4.66276
550 2 15.9316 9.50837 4.66276
553 2 14.322 12.2964 4.66276
568 2 17.5413 12.2964 4.66276
479 2 12.7123 13.2257 7.28517
68 1 9.49299 7.64969 10.5614
308 1 12.7123 7.64969 10.5614
311 1 11.1026 10.4377 10.5614
326 1 14.322 10.4377 10.5614
329 1 12.7123 13.2257 10.5614
344 1 15.9316 13.2257 10.5614
536 2 12.7123 9.50837 9.90759
551 2 15.9316 9.50837 9.90759
554 2 14.322 12.2964 9.90759
569 2 17.5413 12.2964 9.90759
491 2 17.5413 10.4377 7.28517
219 2 9.49299 7.64969 12.53
473 2 15.9316 7.64969 7.28517
358 1 19.1509 13.2257 5.31653
322 1 15.9316 7.64969 5.31653
508 2 19.1509 13.2257 2.04034
490 2 17.5413 10.4377 2.04034
387 1 12.7123 9.50837 13.1838
402 1 15.9316 9.50837 13.1838
405 1 14.322 12.2964 13.1838
420 1 17.5413 12.2964 13.1838
459 2 12.7123 7.64969 12.53
462 2 11.1026 10.4377 12.53
477 2 14.322 10.4377 12.53
480 2 12.7123 13.2257 12.53
495 2 15.9316 13.2257 12.53
537 2 12.7123 9.50837 15.1524
552 2 15.9316 9.50837 15.1524
555 2 14.322 12.2964 15.1524
570 2 17.5413 12.2964 15.1524
211 2 12.7123 2.07367 2.04034
454 2 14.322 4.86168 2.04034
61 1 12.7123 2.07367 5.31653
212 2 12.7123 2.07367 7.28517
304 1 14.322 4.86168 5.31653
455 2 14.322 4.86168 7.28517
62 1 12.7123 2.07367 10.5614
305 1 14.322 4.86168 10.5614
472 2 15.9316 7.64969 2.04034
213 2 12.7123 2.07367 12.53
456 2 14.322 4.86168 12.53
3060 1 19.1509 13.2257 0.0716959
3045 1 15.9316 13.2257 0.0716959
2769 1 9.49299 7.64969 0.0716959
2772 1 7.88333 10.4377 0.071696
3030 1 12.7123 13.2257 0.071696
2763 1 12.7123 2.07367 0.0716958
2736 1 4.66401 4.86168 0.0716957
3027 1 14.322 10.4377 0.0716959
3012 1 11.1026 10.4377 0.071696
3006 1 14.322 4.86168 0.0716958
2766 1 11.1027 4.86168 0.0716958
3015 1 9.49299 13.2257 0.0716961
3009 1 12.7123 7.64969 0.0716959
3024 1 15.9316 7.64969 0.0716959
2754 1 6.27367 7.64969 0.0716958
2751 1 7.88333 4.86168 0.0716958
2748 1 9.493 2.07367 0.0716957
2733 1 6.27367 2.07367 0.0716957
2718 1 3.05435 2.07367 0.0716957
2776 1 1.44469 1.14433 18.4286
2791 1 4.66401 1.14433 18.4286
2794 1 3.05435 3.93234 18.4286
2809 1 6.27367 3.93234 18.4286
2812 1 4.66401 6.72035 18.4286
2827 1 7.88333 6.72035 18.4286
2866 2 3.05435 2.07367 17.7749
2884 2 4.66401 4.86168 17.7749
2716 1 3.05435 2.07367 21.051
2734 1 4.66401 4.86168 21.051
2777 1 1.44469 1.14433 23.6735
2792 1 4.66401 1.14433 23.6735
2795 1 3.05435 3.93234 23.6735
2810 1 6.27367 3.93234 23.6735
2813 1 4.66401 6.72035 23.6735
2828 1 7.88333 6.72035 23.6735
2867 2 3.05435 2.07367 23.0197
2885 2 4.66401 4.86168 23.0197
2977 2 7.88333 6.72035 20.3973
2926 2 1.44469 1.14433 20.3973
2941 2 4.66401 1.14433 20.3973
2944 2 3.05435 3.93234 20.3973
2959 2 6.27367 3.93234 20.3973
2962 2 4.66401 6.72035 20.3973
2717 1 3.05435 2.07367 26.2959
2735 1 4.66401 4.86168 26.2959
2927 2 1.44469 1.14433 25.6421
2942 2 4.66401 1.14433 25.6421
2945 2 3.05435 3.93234 25.6421
2960 2 6.27367 3.93234 25.6421
2963 2 4.66401 6.72035 25.6421
2978 2 7.88333 6.72035 25.6421
3210 2 19.1509 13.2257 28.2645
48 1 9.49299 2.07367 15.8062
2778 1 1.44469 1.14433 28.9183
2793 1 4.66401 1.14433 28.9183
2796 1 3.05435 3.93234 28.9183
2811 1 6.27367 3.93234 28.9183
2814 1 4.66401 6.72035 28.9183
2829 1 7.88333 6.72035 28.9183
2868 2 3.05435 2.07367 28.2645
2979 2 7.88333 6.72035 30.8869
2886 2 4.66401 4.86168 28.2645
2928 2 1.44469 1.14433 30.8869
2943 2 4.66401 1.14433 30.8869
2946 2 3.05435 3.93234 30.8869
2961 2 6.27367 3.93234 30.8869
2964 2 4.66401 6.72035 30.8869
2830 1 6.27367 9.50837 18.4286
2845 1 9.49299 9.50837 18.4286
2848 1 7.88333 12.2964 18.4286
2902 2 6.27367 7.64969 17.7749
2920 2 7.88333 10.4377 17.7749
3088 1 11.1026 12.2964 18.4286
3163 2 9.49299 13.2257 17.7749
2752 1 6.27367 7.64969 21.051
2770 1 7.88333 10.4377 21.051
2831 1 6.27367 9.50836 23.6735
2846 1 9.49299 9.50836 23.6735
2849 1 7.88333 12.2964 23.6735
2998 2 7.88333 12.2964 20.3973
2903 2 6.27367 7.64969 23.0197
2921 2 7.88333 10.4377 23.0197
2980 2 6.27367 9.50837 20.3973
2995 2 9.49299 9.50837 20.3973
3013 1 9.49299 13.2257 21.0511
3089 1 11.1026 12.2964 23.6735
3164 2 9.49299 13.2257 23.0197
3238 2 11.1026 12.2964 20.3973
2753 1 6.27367 7.64969 26.2959
2771 1 7.88333 10.4377 26.2959
2981 2 6.27367 9.50836 25.6421
2996 2 9.49299 9.50836 25.6421
2999 2 7.88333 12.2964 25.6421
3014 1 9.49299 13.2257 26.2959
3239 2 11.1026 12.2964 25.6421
63 1 12.7123 2.07367 15.8062
69 1 9.49299 7.64969 15.8062
2832 1 6.27367 9.50836 28.9183
2847 1 9.49299 9.50836 28.9183
2850 1 7.88333 12.2964 28.9183
2904 2 6.27367 7.64969 28.2645
2922 2 7.88333 10.4377 28.2645
2982 2 6.27367 9.50836 30.8869
2997 2 9.49299 9.50836 30.8869
3000 2 7.88333 12.2964 30.8869
66 1 11.1027 4.86168 15.8062
3090 1 11.1026 12.2964 28.9183
3165 2 9.49299 13.2257 28.2645
3240 2 11.1026 12.2964 30.8869
2806 1 7.88333 1.14433 18.4286
2821 1 11.1027 1.14433 18.4286
2824 1 9.49299 3.93234 18.4286
2839 1 12.7123 3.93234 18.4286
2842 1 11.1027 6.72035 18.4286
2881 2 6.27367 2.07367 17.7749
2896 2 9.49299 2.07367 17.7749
2899 2 7.88333 4.86168 17.7749
2914 2 11.1027 4.86168 17.7749
3082 1 14.322 6.72035 18.4286
2731 1 6.27367 2.07367 21.051
2746 1 9.49299 2.07367 21.051
2749 1 7.88333 4.86168 21.051
2764 1 11.1027 4.86168 21.051
2807 1 7.88333 1.14433 23.6735
2822 1 11.1027 1.14433 23.6735
2825 1 9.49299 3.93234 23.6735
2840 1 12.7123 3.93234 23.6735
2843 1 11.1027 6.72035 23.6735
2882 2 6.27367 2.07367 23.0197
2897 2 9.49299 2.07367 23.0197
2915 2 11.1027 4.86168 23.0197
2956 2 7.88333 1.14433 20.3973
2971 2 11.1027 1.14433 20.3973
2974 2 9.49299 3.93234 20.3973
2992 2 11.1027 6.72035 20.3973
2989 2 12.7123 3.93234 20.3973
2900 2 7.88333 4.86168 23.0197
3083 1 14.322 6.72035 23.6735
3232 2 14.322 6.72035 20.3973
2732 1 6.27367 2.07367 26.2959
2747 1 9.49299 2.07367 26.2959
2750 1 7.88333 4.86168 26.2959
2765 1 11.1027 4.86168 26.2959
2957 2 7.88333 1.14433 25.6421
2972 2 11.1027 1.14433 25.6421
2975 2 9.49299 3.93234 25.6421
2990 2 12.7123 3.93234 25.6421
2993 2 11.1027 6.72035 25.6421
3233 2 14.322 6.72035 25.6421
3192 2 17.5413 10.4377 28.2645
306 1 14.322 4.86168 15.8062
3174 2 15.9316 7.64969 28.2645
324 1 15.9316 7.64969 15.8062
2808 1 7.88333 1.14433 28.9183
2823 1 11.1027 1.14433 28.9183
2826 1 9.49299 3.93234 28.9183
2841 1 12.7123 3.93234 28.9183
2844 1 11.1027 6.72035 28.9183
2898 2 9.49299 2.07367 28.2645
2901 2 7.88333 4.86168 28.2645
2916 2 11.1027 4.86168 28.2645
2958 2 7.88333 1.14433 30.8869
2973 2 11.1027 1.14433 30.8869
2976 2 9.49299 3.93234 30.8869
2994 2 11.1027 6.72035 30.8869
2991 2 12.7123 3.93234 30.8869
2883 2 6.27367 2.07367 28.2645
3084 1 14.322 6.72035 28.9183
3234 2 14.322 6.72035 30.8869
2917 2 9.49299 7.64969 17.7749
3085 1 12.7123 9.50837 18.4286
3100 1 15.9316 9.50837 18.4286
3103 1 14.322 12.2964 18.4286
3118 1 17.5413 12.2964 18.4286
3157 2 12.7123 7.64969 17.7749
3160 2 11.1026 10.4377 17.7749
3175 2 14.322 10.4377 17.7749
3178 2 12.7123 13.2257 17.7749
3193 2 15.9316 13.2257 17.7749
2767 1 9.49299 7.64969 21.051
2918 2 9.49299 7.64969 23.0197
3007 1 12.7123 7.64969 21.051
3010 1 11.1026 10.4377 21.051
3025 1 14.322 10.4377 21.051
3028 1 12.7123 13.2257 21.051
3043 1 15.9316 13.2257 21.051
3086 1 12.7123 9.50836 23.6735
3101 1 15.9316 9.50836 23.6735
3104 1 14.322 12.2964 23.6735
3119 1 17.5413 12.2964 23.6735
3158 2 12.7123 7.64969 23.0197
3161 2 11.1026 10.4377 23.0197
3176 2 14.322 10.4377 23.0197
3194 2 15.9316 13.2257 23.0197
3235 2 12.7123 9.50836 20.3973
3250 2 15.9316 9.50836 20.3973
3253 2 14.322 12.2964 20.3973
3268 2 17.5413 12.2964 20.3973
3179 2 12.7123 13.2257 23.0197
2768 1 9.49299 7.64969 26.2959
3008 1 12.7123 7.64969 26.2959
3011 1 11.1026 10.4377 26.2959
3026 1 14.322 10.4377 26.2959
3029 1 12.7123 13.2257 26.2959
3044 1 15.9316 13.2257 26.2959
3236 2 12.7123 9.50836 25.6421
3251 2 15.9316 9.50836 25.6421
3254 2 14.322 12.2964 25.6421
3269 2 17.5413 12.2964 25.6421
3059 1 19.1509 13.2257 26.2959
2919 2 9.49299 7.64969 28.2645
3041 1 17.5413 10.4377 26.2959
3023 1 15.9316 7.64969 26.2959
3209 2 19.1509 13.2257 23.0197
3191 2 17.5413 10.4377 23.0197
3173 2 15.9316 7.64969 23.0197
3087 1 12.7123 9.50836 28.9183
3102 1 15.9316 9.50836 28.9183
3105 1 14.322 12.2964 28.9183
3120 1 17.5413 12.2964 28.9183
3159 2 12.7123 7.64969 28.2645
3162 2 11.1026 10.4377 28.2645
3177 2 14.322 10.4377 28.2645
3180 2 12.7123 13.2257 28.2645
3195 2 15.9316 13.2257 28.2645
3237 2 12.7123 9.50836 30.8869
3252 2 15.9316 9.50836 30.8869
3255 2 14.322 12.2964 30.8869
3270 2 17.5413 12.2964 30.8869
2911 2 12.7123 2.07367 17.7749
3154 2 14.322 4.86168 17.7749
2761 1 12.7123 2.07367 21.051
2912 2 12.7123 2.07367 23.0197
3004 1 14.322 4.86168 21.051
3155 2 14.322 4.86168 23.0197
2762 1 12.7123 2.07367 26.2959
3005 1 14.322 4.86168 26.2959
3058 1 19.1509 13.2257 21.051
2913 2 12.7123 2.07367 28.2645
312 1 11.1026 10.4377 15.8062
3156 2 14.322 4.86168 28.2645
3172 2 15.9316 7.64969 17.7749
3190 2 17.5413 10.4377 17.7749
3208 2 19.1509 13.2257 17.7749
3022 1 15.9316 7.64969 21.051
3040 1 17.5413 10.4377 21.051
18 1 3.05435 2.07367 15.8062
345 1 15.9316 13.2257 15.8062
327 1 14.322 10.4377 15.8062
342 1 17.5413 10.4377 15.8062
36 1 4.66401 4.86168 15.8062
330 1 12.7123 13.2257 15.8062
309 1 12.7123 7.64969 15.8062
54 1 6.27367 7.64969 15.8062
315 1 9.49299 13.2257 15.8062
72 1 7.88333 10.4377 15.8062
360 1 19.1509 13.2257 15.8062
33 1 6.27367 2.07367 15.8062
51 1 7.88333 4.86168 15.8062
976 1 9.49299 15.0844 2.69412
991 1 12.7123 15.0844 2.69412
994 1 11.1026 17.8724 2.69412
1009 1 14.322 17.8724 2.69412
1012 1 12.7123 20.6604 2.69412
1027 1 15.9316 20.6604 2.69412
1066 2 11.1026 16.0137 2.04034
1084 2 12.7123 18.8017 2.04034
916 1 11.1026 16.0137 5.31653
934 1 12.7123 18.8017 5.31653
977 1 9.49299 15.0844 7.93895
992 1 12.7123 15.0844 7.93895
995 1 11.1026 17.8724 7.93895
1010 1 14.322 17.8724 7.93895
1013 1 12.7123 20.6604 7.93895
1028 1 15.9316 20.6604 7.93895
1067 2 11.1026 16.0137 7.28517
1085 2 12.7123 18.8017 7.28517
1177 2 15.9316 20.6604 4.66276
1126 2 9.49299 15.0844 4.66276
1141 2 12.7123 15.0844 4.66276
1144 2 11.1026 17.8724 4.66276
1159 2 14.322 17.8724 4.66276
1162 2 12.7123 20.6604 4.66276
917 1 11.1026 16.0137 10.5614
935 1 12.7123 18.8017 10.5614
1127 2 9.49299 15.0844 9.90759
1142 2 12.7123 15.0844 9.90759
1145 2 11.1026 17.8724 9.90759
1160 2 14.322 17.8724 9.90759
1163 2 12.7123 20.6604 9.90759
1178 2 15.9316 20.6604 9.90759
1410 2 27.1992 27.1658 12.53
1392 2 25.5896 24.3778 12.53
978 1 9.49298 15.0844 13.1838
993 1 12.7123 15.0844 13.1838
996 1 11.1026 17.8724 13.1838
1011 1 14.322 17.8724 13.1838
1014 1 12.7123 20.6604 13.1838
1029 1 15.9316 20.6604 13.1838
1068 2 11.1026 16.0137 12.53
1179 2 15.9316 20.6604 15.1524
1086 2 12.7123 18.8017 12.53
1128 2 9.49298 15.0844 15.1524
1143 2 12.7123 15.0844 15.1524
1146 2 11.1026 17.8724 15.1524
1161 2 14.322 17.8724 15.1524
1164 2 12.7123 20.6604 15.1524
1030 1 14.322 23.4484 2.69412
1045 1 17.5413 23.4484 2.69412
1048 1 15.9316 26.2364 2.69412
1102 2 14.322 21.5897 2.04034
1120 2 15.9316 24.3778 2.04034
1288 1 19.1509 26.2364 2.69412
1363 2 17.5413 27.1658 2.04034
952 1 14.322 21.5897 5.31653
970 1 15.9316 24.3778 5.31653
1031 1 14.322 23.4484 7.93895
1046 1 17.5413 23.4484 7.93895
1049 1 15.9316 26.2364 7.93895
1198 2 15.9316 26.2364 4.66276
1103 2 14.322 21.5897 7.28517
1121 2 15.9316 24.3778 7.28517
1180 2 14.322 23.4484 4.66276
1195 2 17.5413 23.4484 4.66276
1213 1 17.5413 27.1658 5.31653
1289 1 19.1509 26.2364 7.93895
1364 2 17.5413 27.1658 7.28517
1438 2 19.1509 26.2364 4.66276
953 1 14.322 21.5897 10.5614
971 1 15.9316 24.3778 10.5614
1181 2 14.322 23.4484 9.90759
1196 2 17.5413 23.4484 9.90759
1199 2 15.9316 26.2364 9.90759
1214 1 17.5413 27.1658 10.5614
1439 2 19.1509 26.2364 9.90759
1391 2 25.5896 24.3778 7.28517
3930 1 20.7606 27.1658 0.071696
1032 1 14.322 23.4484 13.1838
1047 1 17.5413 23.4484 13.1838
1050 1 15.9316 26.2364 13.1838
1104 2 14.322 21.5897 12.53
1122 2 15.9316 24.3778 12.53
1182 2 14.322 23.4484 15.1524
1197 2 17.5413 23.4484 15.1524
1200 2 15.9316 26.2364 15.1524
1373 2 23.9799 21.5897 7.28517
1290 1 19.1509 26.2364 13.1838
1365 2 17.5413 27.1658 12.53
1440 2 19.1509 26.2364 15.1524
1006 1 15.9316 15.0844 2.69412
1021 1 19.1509 15.0844 2.69412
1024 1 17.5413 17.8724 2.69412
1039 1 20.7606 17.8724 2.69412
1042 1 19.1509 20.6604 2.69412
1081 2 14.322 16.0137 2.04034
1096 2 17.5413 16.0137 2.04034
1099 2 15.9316 18.8017 2.04034
1114 2 19.1509 18.8017 2.04034
1282 1 22.3703 20.6604 2.69412
931 1 14.322 16.0137 5.31653
946 1 17.5413 16.0137 5.31653
949 1 15.9316 18.8017 5.31653
964 1 19.1509 18.8017 5.31653
1007 1 15.9316 15.0844 7.93895
1022 1 19.1509 15.0844 7.93895
1025 1 17.5413 17.8724 7.93895
1040 1 20.7606 17.8724 7.93895
1043 1 19.1509 20.6604 7.93895
1082 2 14.322 16.0137 7.28517
1097 2 17.5413 16.0137 7.28517
1115 2 19.1509 18.8017 7.28517
1156 2 15.9316 15.0844 4.66276
1171 2 19.1509 15.0844 4.66276
1174 2 17.5413 17.8724 4.66276
1192 2 19.1509 20.6604 4.66276
1189 2 20.7606 17.8724 4.66276
1100 2 15.9316 18.8017 7.28517
1283 1 22.3703 20.6604 7.93895
1432 2 22.3703 20.6604 4.66276
932 1 14.322 16.0137 10.5614
947 1 17.5413 16.0137 10.5614
950 1 15.9316 18.8017 10.5614
965 1 19.1509 18.8017 10.5614
1157 2 15.9316 15.0844 9.90759
1172 2 19.1509 15.0844 9.90759
1175 2 17.5413 17.8724 9.90759
1190 2 20.7606 17.8724 9.90759
1193 2 19.1509 20.6604 9.90759
1433 2 22.3703 20.6604 9.90759
1374 2 23.9799 21.5897 12.53
1258 1 27.1992 27.1658 5.31653
1259 1 27.1992 27.1658 10.5614
1241 1 25.5896 24.3778 10.5614
1008 1 15.9316 15.0844 13.1838
1023 1 19.1509 15.0844 13.1838
1026 1 17.5413 17.8724 13.1838
1041 1 20.7606 17.8724 13.1838
1044 1 19.1509 20.6604 13.1838
1098 2 17.5413 16.0137 12.53
1101 2 15.9316 18.8017 12.53
1116 2 19.1509 18.8017 12.53
1158 2 15.9316 15.0844 15.1524
1173 2 19.1509 15.0844 15.1524
1176 2 17.5413 17.8724 15.1524
1194 2 19.1509 20.6604 15.1524
1191 2 20.7606 17.8724 15.1524
1083 2 14.322 16.0137 12.53
1284 1 22.3703 20.6604 13.1838
1434 2 22.3703 20.6604 15.1524
1117 2 17.5413 21.5897 2.04034
1285 1 20.7606 23.4484 2.69412
1300 1 23.9799 23.4484 2.69412
1303 1 22.3703 26.2364 2.69412
1318 1 25.5896 26.2364 2.69412
1357 2 20.7606 21.5897 2.04034
1360 2 19.1509 24.3778 2.04034
1375 2 22.3703 24.3778 2.04034
1378 2 20.7606 27.1658 2.04034
1393 2 23.9799 27.1658 2.04034
967 1 17.5413 21.5897 5.31653
1118 2 17.5413 21.5897 7.28517
1207 1 20.7606 21.5897 5.31653
1210 1 19.1509 24.3778 5.31653
1225 1 22.3703 24.3778 5.31653
1228 1 20.7606 27.1658 5.31653
1243 1 23.9799 27.1658 5.31653
1286 1 20.7606 23.4484 7.93895
1301 1 23.9799 23.4484 7.93895
1304 1 22.3703 26.2364 7.93895
1319 1 25.5896 26.2364 7.93895
1358 2 20.7606 21.5897 7.28517
1361 2 19.1509 24.3778 7.28517
1376 2 22.3703 24.3778 7.28517
1394 2 23.9799 27.1658 7.28517
1435 2 20.7606 23.4484 4.66276
1450 2 23.9799 23.4484 4.66276
1453 2 22.3703 26.2364 4.66276
1468 2 25.5896 26.2364 4.66276
1379 2 20.7606 27.1658 7.28517
968 1 17.5413 21.5897 10.5614
1208 1 20.7606 21.5897 10.5614
1211 1 19.1509 24.3778 10.5614
1226 1 22.3703 24.3778 10.5614
1229 1 20.7606 27.1658 10.5614
1244 1 23.9799 27.1658 10.5614
1436 2 20.7606 23.4484 9.90759
1451 2 23.9799 23.4484 9.90759
1454 2 22.3703 26.2364 9.90759
1469 2 25.5896 26.2364 9.90759
1223 1 23.9799 21.5897 10.5614
1119 2 17.5413 21.5897 12.53
1240 1 25.5896 24.3778 5.31653
1222 1 23.9799 21.5897 5.31653
1408 2 27.1992 27.1658 2.04034
1390 2 25.5896 24.3778 2.04034
1372 2 23.9799 21.5897 2.04034
1287 1 20.7606 23.4484 13.1838
1302 1 23.9799 23.4484 13.1838
1305 1 22.3703 26.2364 13.1838
1320 1 25.5896 26.2364 13.1838
1359 2 20.7606 21.5897 12.53
1362 2 19.1509 24.3778 12.53
1377 2 22.3703 24.3778 12.53
1380 2 20.7606 27.1658 12.53
1395 2 23.9799 27.1658 12.53
1437 2 20.7606 23.4484 15.1524
1452 2 23.9799 23.4484 15.1524
1455 2 22.3703 26.2364 15.1524
1470 2 25.5896 26.2364 15.1524
1111 2 20.7606 16.0137 2.04034
1354 2 22.3703 18.8017 2.04034
961 1 20.7606 16.0137 5.31653
1112 2 20.7606 16.0137 7.28517
1204 1 22.3703 18.8017 5.31653
1355 2 22.3703 18.8017 7.28517
962 1 20.7606 16.0137 10.5614
1205 1 22.3703 18.8017 10.5614
1409 2 27.1992 27.1658 7.28517
1113 2 20.7606 16.0137 12.53
1356 2 22.3703 18.8017 12.53
3654 1 14.322 21.5897 0.0716959
3906 1 22.3703 18.8017 0.0716959
3669 1 17.5413 21.5897 0.0716958
3927 1 22.3703 24.3778 0.071696
3909 1 20.7606 21.5897 0.0716959
3666 1 19.1509 18.8017 0.0716958
3924 1 23.9799 21.5897 0.0716959
3942 1 25.5896 24.3778 0.071696
3648 1 17.5413 16.0137 0.0716959
3651 1 15.9316 18.8017 0.0716959
3960 1 27.1992 27.1658 0.0716961
3618 1 11.1026 16.0137 0.071696
3945 1 23.9799 27.1658 0.0716961
3663 1 20.7606 16.0137 0.0716959
3633 1 14.322 16.0137 0.071696
3636 1 12.7123 18.8017 0.071696
3912 1 19.1509 24.3778 0.0716959
3915 1 17.5413 27.1658 0.0716959
3672 1 15.9316 24.3778 0.0716959
3676 1 9.49298 15.0844 18.4286
3691 1 12.7123 15.0844 18.4286
3694 1 11.1026 17.8724 18.4286
3709 1 14.322 17.8724 18.4286
3712 1 12.7123 20.6604 18.4286
3727 1 15.9316 20.6604 18.4286
3766 2 11.1026 16.0137 17.7749
3784 2 12.7123 18.8017 17.7749
3616 1 11.1026 16.0137 21.0511
3634 1 12.7123 18.8017 21.051
3677 1 9.49298 15.0844 23.6735
3692 1 12.7123 15.0844 23.6735
3695 1 11.1026 17.8724 23.6735
3710 1 14.322 17.8724 23.6735
3713 1 12.7123 20.6604 23.6735
3728 1 15.9316 20.6604 23.6735
3767 2 11.1026 16.0137 23.0197
3785 2 12.7123 18.8017 23.0197
3877 2 15.9316 20.6604 20.3973
3826 2 9.49298 15.0844 20.3973
3841 2 12.7123 15.0844 20.3973
3844 2 11.1026 17.8724 20.3973
3859 2 14.322 17.8724 20.3973
3862 2 12.7123 20.6604 20.3973
3617 1 11.1026 16.0137 26.2959
3635 1 12.7123 18.8017 26.2959
3827 2 9.49298 15.0844 25.6421
3842 2 12.7123 15.0844 25.6421
3845 2 11.1026 17.8724 25.6421
3860 2 14.322 17.8724 25.6421
3863 2 12.7123 20.6604 25.6421
3878 2 15.9316 20.6604 25.6421
936 1 12.7123 18.8017 15.8062
966 1 19.1509 18.8017 15.8062
3678 1 9.49298 15.0844 28.9183
3693 1 12.7123 15.0844 28.9183
3696 1 11.1026 17.8724 28.9183
3711 1 14.322 17.8724 28.9183
3714 1 12.7123 20.6604 28.9183
3729 1 15.9316 20.6604 28.9183
3768 2 11.1026 16.0137 28.2645
3879 2 15.9316 20.6604 30.8869
3786 2 12.7123 18.8017 28.2645
3828 2 9.49298 15.0844 30.8869
3843 2 12.7123 15.0844 30.8869
3846 2 11.1026 17.8724 30.8869
3861 2 14.322 17.8724 30.8869
3864 2 12.7123 20.6604 30.8869
3730 1 14.322 23.4484 18.4286
3745 1 17.5413 23.4484 18.4286
3748 1 15.9316 26.2364 18.4286
3802 2 14.322 21.5897 17.7749
3820 2 15.9316 24.3778 17.7749
3988 1 19.1509 26.2364 18.4286
4063 2 17.5413 27.1658 17.7749
3652 1 14.322 21.5897 21.051
3670 1 15.9316 24.3778 21.051
3731 1 14.322 23.4484 23.6735
3746 1 17.5413 23.4484 23.6735
3749 1 15.9316 26.2364 23.6735
3898 2 15.9316 26.2364 20.3973
3803 2 14.322 21.5897 23.0197
3821 2 15.9316 24.3778 23.0197
3880 2 14.322 23.4484 20.3973
3895 2 17.5413 23.4484 20.3973
3913 1 17.5413 27.1658 21.051
3989 1 19.1509 26.2364 23.6735
4064 2 17.5413 27.1658 23.0197
4138 2 19.1509 26.2364 20.3973
3653 1 14.322 21.5897 26.2959
3671 1 15.9316 24.3778 26.2959
3881 2 14.322 23.4484 25.6421
3896 2 17.5413 23.4484 25.6421
3899 2 15.9316 26.2364 25.6421
3914 1 17.5413 27.1658 26.2959
4139 2 19.1509 26.2364 25.6421
4110 2 27.1992 27.1658 28.2645
4092 2 25.5896 24.3778 28.2645
3732 1 14.322 23.4484 28.9183
3747 1 17.5413 23.4484 28.9183
3750 1 15.9316 26.2364 28.9183
3804 2 14.322 21.5897 28.2645
3822 2 15.9316 24.3778 28.2645
3882 2 14.322 23.4484 30.8869
3897 2 17.5413 23.4484 30.8869
3900 2 15.9316 26.2364 30.8869
969 1 17.5413 21.5897 15.8062
3990 1 19.1509 26.2364 28.9183
4065 2 17.5413 27.1658 28.2645
4140 2 19.1509 26.2364 30.8869
3706 1 15.9316 15.0844 18.4286
3721 1 19.1509 15.0844 18.4286
3724 1 17.5413 17.8724 18.4286
3739 1 20.7606 17.8724 18.4286
3742 1 19.1509 20.6604 18.4286
3781 2 14.322 16.0137 17.7749
3796 2 17.5413 16.0137 17.7749
3799 2 15.9316 18.8017 17.7749
3814 2 19.1509 18.8017 17.7749
3982 1 22.3703 20.6604 18.4286
3631 1 14.322 16.0137 21.051
3646 1 17.5413 16.0137 21.051
3649 1 15.9316 18.8017 21.051
3664 1 19.1509 18.8017 21.051
3707 1 15.9316 15.0844 23.6735
3722 1 19.1509 15.0844 23.6735
3725 1 17.5413 17.8724 23.6735
3740 1 20.7606 17.8724 23.6735
3743 1 19.1509 20.6604 23.6735
3782 2 14.322 16.0137 23.0197
3797 2 17.5413 16.0137 23.0197
3815 2 19.1509 18.8017 23.0197
3856 2 15.9316 15.0844 20.3973
3871 2 19.1509 15.0844 20.3973
3874 2 17.5413 17.8724 20.3973
3892 2 19.1509 20.6604 20.3973
3889 2 20.7606 17.8724 20.3973
3800 2 15.9316 18.8017 23.0197
3983 1 22.3703 20.6604 23.6735
4132 2 22.3703 20.6604 20.3973
3632 1 14.322 16.0137 26.2959
3647 1 17.5413 16.0137 26.2959
3650 1 15.9316 18.8017 26.2959
3665 1 19.1509 18.8017 26.2959
3857 2 15.9316 15.0844 25.6421
3872 2 19.1509 15.0844 25.6421
3875 2 17.5413 17.8724 25.6421
3890 2 20.7606 17.8724 25.6421
3893 2 19.1509 20.6604 25.6421
4133 2 22.3703 20.6604 25.6421
4074 2 23.9799 21.5897 28.2645
972 1 15.9316 24.3778 15.8062
1209 1 20.7606 21.5897 15.8062
1206 1 22.3703 18.8017 15.8062
3708 1 15.9316 15.0844 28.9183
3723 1 19.1509 15.0844 28.9183
3726 1 17.5413 17.8724 28.9183
3741 1 20.7606 17.8724 28.9183
3744 1 19.1509 20.6604 28.9183
3798 2 17.5413 16.0137 28.2645
3801 2 15.9316 18.8017 28.2645
3816 2 19.1509 18.8017 28.2645
3858 2 15.9316 15.0844 30.8869
3873 2 19.1509 15.0844 30.8869
3876 2 17.5413 17.8724 30.8869
3894 2 19.1509 20.6604 30.8869
3891 2 20.7606 17.8724 30.8869
3783 2 14.322 16.0137 28.2645
3984 1 22.3703 20.6604 28.9183
4134 2 22.3703 20.6604 30.8869
3817 2 17.5413 21.5897 17.7749
3985 1 20.7606 23.4484 18.4286
4000 1 23.9799 23.4484 18.4286
4003 1 22.3703 26.2364 18.4286
4018 1 25.5896 26.2364 18.4286
4057 2 20.7606 21.5897 17.7749
4060 2 19.1509 24.3778 17.7749
4075 2 22.3703 24.3778 17.7749
4078 2 20.7606 27.1658 17.7749
4093 2 23.9799 27.1658 17.7749
3667 1 17.5413 21.5897 21.051
3818 2 17.5413 21.5897 23.0197
3907 1 20.7606 21.5897 21.051
3910 1 19.1509 24.3778 21.051
3925 1 22.3703 24.3778 21.051
3928 1 20.7606 27.1658 21.051
3943 1 23.9799 27.1658 21.051
3986 1 20.7606 23.4484 23.6735
4001 1 23.9799 23.4484 23.6735
4004 1 22.3703 26.2364 23.6735
4019 1 25.5896 26.2364 23.6735
4058 2 20.7606 21.5897 23.0197
4061 2 19.1509 24.3778 23.0197
4076 2 22.3703 24.3778 23.0197
4094 2 23.9799 27.1658 23.0197
4135 2 20.7606 23.4484 20.3973
4150 2 23.9799 23.4484 20.3973
4153 2 22.3703 26.2364 20.3973
4168 2 25.5896 26.2364 20.3973
4079 2 20.7606 27.1658 23.0197
3668 1 17.5413 21.5897 26.2959
3908 1 20.7606 21.5897 26.2959
3911 1 19.1509 24.3778 26.2959
3926 1 22.3703 24.3778 26.2959
3929 1 20.7606 27.1658 26.2959
3944 1 23.9799 27.1658 26.2959
4136 2 20.7606 23.4484 25.6421
4151 2 23.9799 23.4484 25.6421
4154 2 22.3703 26.2364 25.6421
4169 2 25.5896 26.2364 25.6421
3959 1 27.1992 27.1658 26.2959
3819 2 17.5413 21.5897 28.2645
3941 1 25.5896 24.3778 26.2959
3923 1 23.9799 21.5897 26.2959
3958 1 27.1992 27.1658 21.0511
3940 1 25.5896 24.3778 21.051
4073 2 23.9799 21.5897 23.0197
3987 1 20.7606 23.4484 28.9183
4002 1 23.9799 23.4484 28.9183
4005 1 22.3703 26.2364 28.9183
4020 1 25.5896 26.2364 28.9183
4059 2 20.7606 21.5897 28.2645
4062 2 19.1509 24.3778 28.2645
4077 2 22.3703 24.3778 28.2645
4080 2 20.7606 27.1658 28.2645
4095 2 23.9799 27.1658 28.2645
4137 2 20.7606 23.4484 30.8869
4152 2 23.9799 23.4484 30.8869
4155 2 22.3703 26.2364 30.8869
4170 2 25.5896 26.2364 30.8869
3811 2 20.7606 16.0137 17.7749
4054 2 22.3703 18.8017 17.7749
3661 1 20.7606 16.0137 21.051
3812 2 20.7606 16.0137 23.0197
3904 1 22.3703 18.8017 21.051
4055 2 22.3703 18.8017 23.0197
3662 1 20.7606 16.0137 26.2959
3905 1 22.3703 18.8017 26.2959
4109 2 27.1992 27.1658 23.0197
3813 2 20.7606 16.0137 28.2645
4091 2 25.5896 24.3778 23.0197
4056 2 22.3703 18.8017 28.2645
4072 2 23.9799 21.5897 17.7749
4090 2 25.5896 24.3778 17.7749
4108 2 27.1992 27.1658 17.7749
3922 1 23.9799 21.5897 21.051
918 1 11.1026 16.0137 15.8062
951 1 15.9316 18.8017 15.8062
1242 1 25.5896 24.3778 15.8062
954 1 14.322 21.5897 15.8062
948 1 17.5413 16.0137 15.8062
933 1 14.322 16.0137 15.8062
1227 1 22.3703 24.3778 15.8062
1245 1 23.9799 27.1658 15.8062
1230 1 20.7606 27.1658 15.8062
963 1 20.7606 16.0137 15.8062
1212 1 19.1509 24.3778 15.8062
1224 1 23.9799 21.5897 15.8062
1260 1 27.1992 27.1658 15.8062
1215 1 17.5413 27.1658 15.8062
1876 1 17.5413 29.0244 2.69412
1891 1 20.7606 29.0244 2.69412
1894 1 19.1509 31.8125 2.69412
1909 1 22.3703 31.8125 2.69412
1912 1 20.7606 34.6005 2.69412
1927 1 23.9799 34.6005 2.69412
1966 2 19.1509 29.9538 2.04034
1984 2 20.7606 32.7418 2.04034
1816 1 19.1509 29.9538 5.31653
1834 1 20.7606 32.7418 5.31653
1877 1 17.5413 29.0244 7.93895
1892 1 20.7606 29.0244 7.93895